prova                                                                   
Freq      RTD-PBE1PBE-FC                                              6-31G(d)            
Number of atoms                            I               24
Info1-9                                    I   N=           9
          34          34           0           0           0         101
           6         218        -301
Charge                                     I                0
Multiplicity                               I                1
Number of electrons                        I               96
Number of alpha electrons                  I               48
Number of beta electrons                   I               48
Number of basis functions                  I              230
Number of independent functions            I              230
Number of point charges in /Mol/           I                0
Number of translation vectors              I                0
Atomic numbers                             I   N=          24
           6           6           6           6           6           6
           1           1           1           1           7           7
           6           6           6           6           6           6
           1           1           1           1           1           1
Nuclear charges                            R   N=          24
  6.00000000E+00  6.00000000E+00  6.00000000E+00  6.00000000E+00  6.00000000E+00
  6.00000000E+00  1.00000000E+00  1.00000000E+00  1.00000000E+00  1.00000000E+00
  7.00000000E+00  7.00000000E+00  6.00000000E+00  6.00000000E+00  6.00000000E+00
  6.00000000E+00  6.00000000E+00  6.00000000E+00  1.00000000E+00  1.00000000E+00
  1.00000000E+00  1.00000000E+00  1.00000000E+00  1.00000000E+00
Current cartesian coordinates              R   N=          72
  7.54114489E+00  2.03236833E+00  2.79679468E-04  4.97895404E+00  2.48184347E+00
  2.24877410E-04  3.22726106E+00  4.34066313E-01 -1.51178091E-05  4.20211786E+00
 -2.09750152E+00 -1.37950008E-04  6.78002178E+00 -2.50229031E+00 -4.72431533E-05
  8.46661936E+00 -4.63910758E-01  1.47398638E-04  4.21578436E+00  4.38730346E+00
  2.89128098E-04  8.86057813E+00  3.60577132E+00  4.00621940E-04  1.04918351E+01
 -8.03494544E-01  1.70075352E-04  7.51023086E+00 -4.42252796E+00 -1.22832199E-04
  7.35481411E-01  1.03463262E+00 -5.66917840E-05 -7.35547551E-01 -1.03486694E+00
 -1.75744530E-04 -3.22729886E+00 -4.34172138E-01 -1.20942473E-04 -4.97909199E+00
 -2.48186426E+00 -1.45508912E-04 -7.54126394E+00 -2.03223983E+00 -1.05824663E-04
 -8.46657590E+00  4.64082723E-01  1.70075352E-05 -6.77985359E+00  2.50237723E+00
  9.07068544E-05 -4.20198369E+00  2.09744294E+00  2.07869875E-05 -4.21603191E+00
 -4.38736960E+00 -2.72120563E-04 -8.86077277E+00 -3.60557856E+00 -1.92752066E-04
 -1.04917689E+01  8.03802570E-01  2.26767136E-05 -7.50995118E+00  4.42266024E+00
  2.11649327E-04 -2.85390598E+00  3.63884341E+00  1.05824663E-04  2.85413464E+00
 -3.63898136E+00 -2.60782206E-04
Force Field                                I                0
Int Atom Types                             I   N=          24
           0           0           0           0           0           0
           0           0           0           0           0           0
           0           0           0           0           0           0
           0           0           0           0           0           0
MM charges                                 R   N=          24
  0.00000000E+00  0.00000000E+00  0.00000000E+00  0.00000000E+00  0.00000000E+00
  0.00000000E+00  0.00000000E+00  0.00000000E+00  0.00000000E+00  0.00000000E+00
  0.00000000E+00  0.00000000E+00  0.00000000E+00  0.00000000E+00  0.00000000E+00
  0.00000000E+00  0.00000000E+00  0.00000000E+00  0.00000000E+00  0.00000000E+00
  0.00000000E+00  0.00000000E+00  0.00000000E+00  0.00000000E+00
Integer atomic weights                     I   N=          24
          12          12          12          12          12          12
           1           1           1           1          14          14
          12          12          12          12          12          12
           1           1           1           1           1           1
Real atomic weights                        R   N=          24
  1.20000000E+01  1.20000000E+01  1.20000000E+01  1.20000000E+01  1.20000000E+01
  1.20000000E+01  1.00782504E+00  1.00782504E+00  1.00782504E+00  1.00782504E+00
  1.40030740E+01  1.40030740E+01  1.20000000E+01  1.20000000E+01  1.20000000E+01
  1.20000000E+01  1.20000000E+01  1.20000000E+01  1.00782504E+00  1.00782504E+00
  1.00782504E+00  1.00782504E+00  1.00782504E+00  1.00782504E+00
Atom fragment info                         I   N=          24
           0           0           0           0           0           0
           0           0           0           0           0           0
           0           0           0           0           0           0
           0           0           0           0           0           0
Atom residue num                           I   N=          24
           0           0           0           0           0           0
           0           0           0           0           0           0
           0           0           0           0           0           0
           0           0           0           0           0           0
Nuclear spins                              I   N=          24
           0           0           0           0           0           0
           1           1           1           1           2           2
           0           0           0           0           0           0
           1           1           1           1           1           1
Nuclear ZEff                               R   N=          24
 -3.60000000E+00 -3.60000000E+00 -3.60000000E+00 -3.60000000E+00 -3.60000000E+00
 -3.60000000E+00 -1.00000000E+00 -1.00000000E+00 -1.00000000E+00 -1.00000000E+00
 -4.55000000E+00 -4.55000000E+00 -3.60000000E+00 -3.60000000E+00 -3.60000000E+00
 -3.60000000E+00 -3.60000000E+00 -3.60000000E+00 -1.00000000E+00 -1.00000000E+00
 -1.00000000E+00 -1.00000000E+00 -1.00000000E+00 -1.00000000E+00
Nuclear QMom                               R   N=          24
  0.00000000E+00  0.00000000E+00  0.00000000E+00  0.00000000E+00  0.00000000E+00
  0.00000000E+00  0.00000000E+00  0.00000000E+00  0.00000000E+00  0.00000000E+00
  2.04400000E+00  2.04400000E+00  0.00000000E+00  0.00000000E+00  0.00000000E+00
  0.00000000E+00  0.00000000E+00  0.00000000E+00  0.00000000E+00  0.00000000E+00
  0.00000000E+00  0.00000000E+00  0.00000000E+00  0.00000000E+00
Nuclear GFac                               R   N=          24
  0.00000000E+00  0.00000000E+00  0.00000000E+00  0.00000000E+00  0.00000000E+00
  0.00000000E+00  2.79284600E+00  2.79284600E+00  2.79284600E+00  2.79284600E+00
  4.03761000E-01  4.03761000E-01  0.00000000E+00  0.00000000E+00  0.00000000E+00
  0.00000000E+00  0.00000000E+00  0.00000000E+00  2.79284600E+00  2.79284600E+00
  2.79284600E+00  2.79284600E+00  2.79284600E+00  2.79284600E+00
MicOpt                                     I   N=          24
          -1          -1          -1          -1          -1          -1
          -1          -1          -1          -1          -1          -1
          -1          -1          -1          -1          -1          -1
          -1          -1          -1          -1          -1          -1
Number of contracted shells                I               76
Number of primitive shells                 I              194
Pure/Cartesian d shells                    I                1
Pure/Cartesian f shells                    I                0
Highest angular momentum                   I                2
Largest degree of contraction              I                6
Shell types                                I   N=          76
           0          -1          -1           2           0          -1
          -1           2           0          -1          -1           2
           0          -1          -1           2           0          -1
          -1           2           0          -1          -1           2
           0           0           0           0           0           0
           0           0           0          -1          -1           2
           0          -1          -1           2           0          -1
          -1           2           0          -1          -1           2
           0          -1          -1           2           0          -1
          -1           2           0          -1          -1           2
           0          -1          -1           2           0           0
           0           0           0           0           0           0
           0           0           0           0
Number of primitives per shell             I   N=          76
           6           3           1           1           6           3
           1           1           6           3           1           1
           6           3           1           1           6           3
           1           1           6           3           1           1
           3           1           3           1           3           1
           3           1           6           3           1           1
           6           3           1           1           6           3
           1           1           6           3           1           1
           6           3           1           1           6           3
           1           1           6           3           1           1
           6           3           1           1           3           1
           3           1           3           1           3           1
           3           1           3           1
Shell to atom map                          I   N=          76
           1           1           1           1           2           2
           2           2           3           3           3           3
           4           4           4           4           5           5
           5           5           6           6           6           6
           7           7           8           8           9           9
          10          10          11          11          11          11
          12          12          12          12          13          13
          13          13          14          14          14          14
          15          15          15          15          16          16
          16          16          17          17          17          17
          18          18          18          18          19          19
          20          20          21          21          22          22
          23          23          24          24
Primitive exponents                        R   N=         194
  3.04752488E+03  4.57369518E+02  1.03948685E+02  2.92101553E+01  9.28666296E+00
  3.16392696E+00  7.86827235E+00  1.88128854E+00  5.44249258E-01  1.68714478E-01
  8.00000000E-01  3.04752488E+03  4.57369518E+02  1.03948685E+02  2.92101553E+01
  9.28666296E+00  3.16392696E+00  7.86827235E+00  1.88128854E+00  5.44249258E-01
  1.68714478E-01  8.00000000E-01  3.04752488E+03  4.57369518E+02  1.03948685E+02
  2.92101553E+01  9.28666296E+00  3.16392696E+00  7.86827235E+00  1.88128854E+00
  5.44249258E-01  1.68714478E-01  8.00000000E-01  3.04752488E+03  4.57369518E+02
  1.03948685E+02  2.92101553E+01  9.28666296E+00  3.16392696E+00  7.86827235E+00
  1.88128854E+00  5.44249258E-01  1.68714478E-01  8.00000000E-01  3.04752488E+03
  4.57369518E+02  1.03948685E+02  2.92101553E+01  9.28666296E+00  3.16392696E+00
  7.86827235E+00  1.88128854E+00  5.44249258E-01  1.68714478E-01  8.00000000E-01
  3.04752488E+03  4.57369518E+02  1.03948685E+02  2.92101553E+01  9.28666296E+00
  3.16392696E+00  7.86827235E+00  1.88128854E+00  5.44249258E-01  1.68714478E-01
  8.00000000E-01  1.87311370E+01  2.82539436E+00  6.40121692E-01  1.61277759E-01
  1.87311370E+01  2.82539436E+00  6.40121692E-01  1.61277759E-01  1.87311370E+01
  2.82539436E+00  6.40121692E-01  1.61277759E-01  1.87311370E+01  2.82539436E+00
  6.40121692E-01  1.61277759E-01  4.17351146E+03  6.27457911E+02  1.42902093E+02
  4.02343293E+01  1.28202129E+01  4.39043701E+00  1.16263619E+01  2.71627981E+00
  7.72218397E-01  2.12031498E-01  8.00000000E-01  4.17351146E+03  6.27457911E+02
  1.42902093E+02  4.02343293E+01  1.28202129E+01  4.39043701E+00  1.16263619E+01
  2.71627981E+00  7.72218397E-01  2.12031498E-01  8.00000000E-01  3.04752488E+03
  4.57369518E+02  1.03948685E+02  2.92101553E+01  9.28666296E+00  3.16392696E+00
  7.86827235E+00  1.88128854E+00  5.44249258E-01  1.68714478E-01  8.00000000E-01
  3.04752488E+03  4.57369518E+02  1.03948685E+02  2.92101553E+01  9.28666296E+00
  3.16392696E+00  7.86827235E+00  1.88128854E+00  5.44249258E-01  1.68714478E-01
  8.00000000E-01  3.04752488E+03  4.57369518E+02  1.03948685E+02  2.92101553E+01
  9.28666296E+00  3.16392696E+00  7.86827235E+00  1.88128854E+00  5.44249258E-01
  1.68714478E-01  8.00000000E-01  3.04752488E+03  4.57369518E+02  1.03948685E+02
  2.92101553E+01  9.28666296E+00  3.16392696E+00  7.86827235E+00  1.88128854E+00
  5.44249258E-01  1.68714478E-01  8.00000000E-01  3.04752488E+03  4.57369518E+02
  1.03948685E+02  2.92101553E+01  9.28666296E+00  3.16392696E+00  7.86827235E+00
  1.88128854E+00  5.44249258E-01  1.68714478E-01  8.00000000E-01  3.04752488E+03
  4.57369518E+02  1.03948685E+02  2.92101553E+01  9.28666296E+00  3.16392696E+00
  7.86827235E+00  1.88128854E+00  5.44249258E-01  1.68714478E-01  8.00000000E-01
  1.87311370E+01  2.82539436E+00  6.40121692E-01  1.61277759E-01  1.87311370E+01
  2.82539436E+00  6.40121692E-01  1.61277759E-01  1.87311370E+01  2.82539436E+00
  6.40121692E-01  1.61277759E-01  1.87311370E+01  2.82539436E+00  6.40121692E-01
  1.61277759E-01  1.87311370E+01  2.82539436E+00  6.40121692E-01  1.61277759E-01
  1.87311370E+01  2.82539436E+00  6.40121692E-01  1.61277759E-01
Contraction coefficients                   R   N=         194
  1.83473713E-03  1.40373228E-02  6.88426223E-02  2.32184443E-01  4.67941348E-01
  3.62311985E-01 -1.19332420E-01 -1.60854152E-01  1.14345644E+00  1.00000000E+00
  1.00000000E+00  1.83473713E-03  1.40373228E-02  6.88426223E-02  2.32184443E-01
  4.67941348E-01  3.62311985E-01 -1.19332420E-01 -1.60854152E-01  1.14345644E+00
  1.00000000E+00  1.00000000E+00  1.83473713E-03  1.40373228E-02  6.88426223E-02
  2.32184443E-01  4.67941348E-01  3.62311985E-01 -1.19332420E-01 -1.60854152E-01
  1.14345644E+00  1.00000000E+00  1.00000000E+00  1.83473713E-03  1.40373228E-02
  6.88426223E-02  2.32184443E-01  4.67941348E-01  3.62311985E-01 -1.19332420E-01
 -1.60854152E-01  1.14345644E+00  1.00000000E+00  1.00000000E+00  1.83473713E-03
  1.40373228E-02  6.88426223E-02  2.32184443E-01  4.67941348E-01  3.62311985E-01
 -1.19332420E-01 -1.60854152E-01  1.14345644E+00  1.00000000E+00  1.00000000E+00
  1.83473713E-03  1.40373228E-02  6.88426223E-02  2.32184443E-01  4.67941348E-01
  3.62311985E-01 -1.19332420E-01 -1.60854152E-01  1.14345644E+00  1.00000000E+00
  1.00000000E+00  3.34946043E-02  2.34726953E-01  8.13757326E-01  1.00000000E+00
  3.34946043E-02  2.34726953E-01  8.13757326E-01  1.00000000E+00  3.34946043E-02
  2.34726953E-01  8.13757326E-01  1.00000000E+00  3.34946043E-02  2.34726953E-01
  8.13757326E-01  1.00000000E+00  1.83477216E-03  1.39946270E-02  6.85865518E-02
  2.32240873E-01  4.69069948E-01  3.60455199E-01 -1.14961182E-01 -1.69117479E-01
  1.14585195E+00  1.00000000E+00  1.00000000E+00  1.83477216E-03  1.39946270E-02
  6.85865518E-02  2.32240873E-01  4.69069948E-01  3.60455199E-01 -1.14961182E-01
 -1.69117479E-01  1.14585195E+00  1.00000000E+00  1.00000000E+00  1.83473713E-03
  1.40373228E-02  6.88426223E-02  2.32184443E-01  4.67941348E-01  3.62311985E-01
 -1.19332420E-01 -1.60854152E-01  1.14345644E+00  1.00000000E+00  1.00000000E+00
  1.83473713E-03  1.40373228E-02  6.88426223E-02  2.32184443E-01  4.67941348E-01
  3.62311985E-01 -1.19332420E-01 -1.60854152E-01  1.14345644E+00  1.00000000E+00
  1.00000000E+00  1.83473713E-03  1.40373228E-02  6.88426223E-02  2.32184443E-01
  4.67941348E-01  3.62311985E-01 -1.19332420E-01 -1.60854152E-01  1.14345644E+00
  1.00000000E+00  1.00000000E+00  1.83473713E-03  1.40373228E-02  6.88426223E-02
  2.32184443E-01  4.67941348E-01  3.62311985E-01 -1.19332420E-01 -1.60854152E-01
  1.14345644E+00  1.00000000E+00  1.00000000E+00  1.83473713E-03  1.40373228E-02
  6.88426223E-02  2.32184443E-01  4.67941348E-01  3.62311985E-01 -1.19332420E-01
 -1.60854152E-01  1.14345644E+00  1.00000000E+00  1.00000000E+00  1.83473713E-03
  1.40373228E-02  6.88426223E-02  2.32184443E-01  4.67941348E-01  3.62311985E-01
 -1.19332420E-01 -1.60854152E-01  1.14345644E+00  1.00000000E+00  1.00000000E+00
  3.34946043E-02  2.34726953E-01  8.13757326E-01  1.00000000E+00  3.34946043E-02
  2.34726953E-01  8.13757326E-01  1.00000000E+00  3.34946043E-02  2.34726953E-01
  8.13757326E-01  1.00000000E+00  3.34946043E-02  2.34726953E-01  8.13757326E-01
  1.00000000E+00  3.34946043E-02  2.34726953E-01  8.13757326E-01  1.00000000E+00
  3.34946043E-02  2.34726953E-01  8.13757326E-01  1.00000000E+00
P(S=P) Contraction coefficients            R   N=         194
  0.00000000E+00  0.00000000E+00  0.00000000E+00  0.00000000E+00  0.00000000E+00
  0.00000000E+00  6.89990666E-02  3.16423961E-01  7.44308291E-01  1.00000000E+00
  0.00000000E+00  0.00000000E+00  0.00000000E+00  0.00000000E+00  0.00000000E+00
  0.00000000E+00  0.00000000E+00  6.89990666E-02  3.16423961E-01  7.44308291E-01
  1.00000000E+00  0.00000000E+00  0.00000000E+00  0.00000000E+00  0.00000000E+00
  0.00000000E+00  0.00000000E+00  0.00000000E+00  6.89990666E-02  3.16423961E-01
  7.44308291E-01  1.00000000E+00  0.00000000E+00  0.00000000E+00  0.00000000E+00
  0.00000000E+00  0.00000000E+00  0.00000000E+00  0.00000000E+00  6.89990666E-02
  3.16423961E-01  7.44308291E-01  1.00000000E+00  0.00000000E+00  0.00000000E+00
  0.00000000E+00  0.00000000E+00  0.00000000E+00  0.00000000E+00  0.00000000E+00
  6.89990666E-02  3.16423961E-01  7.44308291E-01  1.00000000E+00  0.00000000E+00
  0.00000000E+00  0.00000000E+00  0.00000000E+00  0.00000000E+00  0.00000000E+00
  0.00000000E+00  6.89990666E-02  3.16423961E-01  7.44308291E-01  1.00000000E+00
  0.00000000E+00  0.00000000E+00  0.00000000E+00  0.00000000E+00  0.00000000E+00
  0.00000000E+00  0.00000000E+00  0.00000000E+00  0.00000000E+00  0.00000000E+00
  0.00000000E+00  0.00000000E+00  0.00000000E+00  0.00000000E+00  0.00000000E+00
  0.00000000E+00  0.00000000E+00  0.00000000E+00  0.00000000E+00  0.00000000E+00
  0.00000000E+00  0.00000000E+00  0.00000000E+00  6.75797439E-02  3.23907296E-01
  7.40895140E-01  1.00000000E+00  0.00000000E+00  0.00000000E+00  0.00000000E+00
  0.00000000E+00  0.00000000E+00  0.00000000E+00  0.00000000E+00  6.75797439E-02
  3.23907296E-01  7.40895140E-01  1.00000000E+00  0.00000000E+00  0.00000000E+00
  0.00000000E+00  0.00000000E+00  0.00000000E+00  0.00000000E+00  0.00000000E+00
  6.89990666E-02  3.16423961E-01  7.44308291E-01  1.00000000E+00  0.00000000E+00
  0.00000000E+00  0.00000000E+00  0.00000000E+00  0.00000000E+00  0.00000000E+00
  0.00000000E+00  6.89990666E-02  3.16423961E-01  7.44308291E-01  1.00000000E+00
  0.00000000E+00  0.00000000E+00  0.00000000E+00  0.00000000E+00  0.00000000E+00
  0.00000000E+00  0.00000000E+00  6.89990666E-02  3.16423961E-01  7.44308291E-01
  1.00000000E+00  0.00000000E+00  0.00000000E+00  0.00000000E+00  0.00000000E+00
  0.00000000E+00  0.00000000E+00  0.00000000E+00  6.89990666E-02  3.16423961E-01
  7.44308291E-01  1.00000000E+00  0.00000000E+00  0.00000000E+00  0.00000000E+00
  0.00000000E+00  0.00000000E+00  0.00000000E+00  0.00000000E+00  6.89990666E-02
  3.16423961E-01  7.44308291E-01  1.00000000E+00  0.00000000E+00  0.00000000E+00
  0.00000000E+00  0.00000000E+00  0.00000000E+00  0.00000000E+00  0.00000000E+00
  6.89990666E-02  3.16423961E-01  7.44308291E-01  1.00000000E+00  0.00000000E+00
  0.00000000E+00  0.00000000E+00  0.00000000E+00  0.00000000E+00  0.00000000E+00
  0.00000000E+00  0.00000000E+00  0.00000000E+00  0.00000000E+00  0.00000000E+00
  0.00000000E+00  0.00000000E+00  0.00000000E+00  0.00000000E+00  0.00000000E+00
  0.00000000E+00  0.00000000E+00  0.00000000E+00  0.00000000E+00  0.00000000E+00
  0.00000000E+00  0.00000000E+00  0.00000000E+00  0.00000000E+00
Coordinates of each shell                  R   N=         228
  7.54114523E+00  2.03236798E+00  2.79974737E-04  7.54114523E+00  2.03236798E+00
  2.79974737E-04  7.54114523E+00  2.03236798E+00  2.79974737E-04  7.54114523E+00
  2.03236798E+00  2.79974737E-04  4.97895440E+00  2.48184323E+00  2.25172680E-04
  4.97895440E+00  2.48184323E+00  2.25172680E-04  4.97895440E+00  2.48184323E+00
  2.25172680E-04  4.97895440E+00  2.48184323E+00  2.25172680E-04  3.22726134E+00
  4.34066152E-01 -1.48225394E-05  3.22726134E+00  4.34066152E-01 -1.48225394E-05
  3.22726134E+00  4.34066152E-01 -1.48225394E-05  3.22726134E+00  4.34066152E-01
 -1.48225394E-05  4.20211803E+00 -2.09750173E+00 -1.37654738E-04  4.20211803E+00
 -2.09750173E+00 -1.37654738E-04  4.20211803E+00 -2.09750173E+00 -1.37654738E-04
  4.20211803E+00 -2.09750173E+00 -1.37654738E-04  6.78002193E+00 -2.50229062E+00
 -4.69478836E-05  6.78002193E+00 -2.50229062E+00 -4.69478836E-05  6.78002193E+00
 -2.50229062E+00 -4.69478836E-05  6.78002193E+00 -2.50229062E+00 -4.69478836E-05
  8.46661960E+00 -4.63911149E-01  1.47693908E-04  8.46661960E+00 -4.63911149E-01
  1.47693908E-04  8.46661960E+00 -4.63911149E-01  1.47693908E-04  8.46661960E+00
 -4.63911149E-01  1.47693908E-04  4.21578481E+00  4.38730326E+00  2.89423368E-04
  4.21578481E+00  4.38730326E+00  2.89423368E-04  8.86057854E+00  3.60577091E+00
  4.00917210E-04  8.86057854E+00  3.60577091E+00  4.00917210E-04  1.04918353E+01
 -8.03495024E-01  1.70370622E-04  1.04918353E+01 -8.03495024E-01  1.70370622E-04
  7.51023092E+00 -4.42252831E+00 -1.22536929E-04  7.51023092E+00 -4.42252831E+00
 -1.22536929E-04  7.35481712E-01  1.03463256E+00 -5.63965143E-05  7.35481712E-01
  1.03463256E+00 -5.63965143E-05  7.35481712E-01  1.03463256E+00 -5.63965143E-05
  7.35481712E-01  1.03463256E+00 -5.63965143E-05 -7.35547341E-01 -1.03486693E+00
 -1.75449261E-04 -7.35547341E-01 -1.03486693E+00 -1.75449261E-04 -7.35547341E-01
 -1.03486693E+00 -1.75449261E-04 -7.35547341E-01 -1.03486693E+00 -1.75449261E-04
 -3.22729862E+00 -4.34172016E-01 -1.20647203E-04 -3.22729862E+00 -4.34172016E-01
 -1.20647203E-04 -3.22729862E+00 -4.34172016E-01 -1.20647203E-04 -3.22729862E+00
 -4.34172016E-01 -1.20647203E-04 -4.97909184E+00 -2.48186406E+00 -1.45213643E-04
 -4.97909184E+00 -2.48186406E+00 -1.45213643E-04 -4.97909184E+00 -2.48186406E+00
 -1.45213643E-04 -4.97909184E+00 -2.48186406E+00 -1.45213643E-04 -7.54126377E+00
 -2.03223952E+00 -1.05529394E-04 -7.54126377E+00 -2.03223952E+00 -1.05529394E-04
 -7.54126377E+00 -2.03223952E+00 -1.05529394E-04 -7.54126377E+00 -2.03223952E+00
 -1.05529394E-04 -8.46657562E+00  4.64083075E-01  1.73028049E-05 -8.46657562E+00
  4.64083075E-01  1.73028049E-05 -8.46657562E+00  4.64083075E-01  1.73028049E-05
 -8.46657562E+00  4.64083075E-01  1.73028049E-05 -6.77985323E+00  2.50237751E+00
  9.10021241E-05 -6.77985323E+00  2.50237751E+00  9.10021241E-05 -6.77985323E+00
  2.50237751E+00  9.10021241E-05 -6.77985323E+00  2.50237751E+00  9.10021241E-05
 -4.20198334E+00  2.09744310E+00  2.10822572E-05 -4.20198334E+00  2.09744310E+00
  2.10822572E-05 -4.20198334E+00  2.09744310E+00  2.10822572E-05 -4.20198334E+00
  2.09744310E+00  2.10822572E-05 -4.21603185E+00 -4.38736944E+00 -2.71825293E-04
 -4.21603185E+00 -4.38736944E+00 -2.71825293E-04 -8.86077267E+00 -3.60557820E+00
 -1.92456796E-04 -8.86077267E+00 -3.60557820E+00 -1.92456796E-04 -1.04917686E+01
  8.03803010E-01  2.29719833E-05 -1.04917686E+01  8.03803010E-01  2.29719833E-05
 -7.50995073E+00  4.42266055E+00  2.11944597E-04 -7.50995073E+00  4.42266055E+00
  2.11944597E-04 -2.85390556E+00  3.63884352E+00  1.06119933E-04 -2.85390556E+00
  3.63884352E+00  1.06119933E-04  2.85413473E+00 -3.63898151E+00 -2.60486937E-04
  2.85413473E+00 -3.63898151E+00 -2.60486937E-04
Constraint Structure                       R   N=          72
  7.54114523E+00  2.03236798E+00  2.79974737E-04  4.97895440E+00  2.48184323E+00
  2.25172680E-04  3.22726134E+00  4.34066152E-01 -1.48225394E-05  4.20211803E+00
 -2.09750173E+00 -1.37654738E-04  6.78002193E+00 -2.50229062E+00 -4.69478836E-05
  8.46661960E+00 -4.63911149E-01  1.47693908E-04  4.21578481E+00  4.38730326E+00
  2.89423368E-04  8.86057854E+00  3.60577091E+00  4.00917210E-04  1.04918353E+01
 -8.03495024E-01  1.70370622E-04  7.51023092E+00 -4.42252831E+00 -1.22536929E-04
  7.35481712E-01  1.03463256E+00 -5.63965143E-05 -7.35547341E-01 -1.03486693E+00
 -1.75449261E-04 -3.22729862E+00 -4.34172016E-01 -1.20647203E-04 -4.97909184E+00
 -2.48186406E+00 -1.45213643E-04 -7.54126377E+00 -2.03223952E+00 -1.05529394E-04
 -8.46657562E+00  4.64083075E-01  1.73028049E-05 -6.77985323E+00  2.50237751E+00
  9.10021241E-05 -4.20198334E+00  2.09744310E+00  2.10822572E-05 -4.21603185E+00
 -4.38736944E+00 -2.71825293E-04 -8.86077267E+00 -3.60557820E+00 -1.92456796E-04
 -1.04917686E+01  8.03803010E-01  2.29719833E-05 -7.50995073E+00  4.42266055E+00
  2.11944597E-04 -2.85390556E+00  3.63884352E+00  1.06119933E-04  2.85413473E+00
 -3.63898151E+00 -2.60486937E-04
Num ILSW                                   I              100
ILSW                                       I   N=         100
           0           1           0           0           2           0
           0           0           0           0        1009          -1
           0           0           0           0           0           0
           0           0           0           0           1           0
           1           0           0           0           0           0
           0           0      100000           0          -1           0
           0           0           0           0           0           0
           0           0           0           1           0           0
           0           0           1           0           0           0
           0           0           4          40           0           0
           0           0          13           0           0           0
           0           0           0           0           0           0
           0           0           0           0           0           0
           0           0           0           0           0           0
           0           0           0           0           0           0
           0           0           0           0           0           0
           0           0           0           0
Num RLSW                                   I               40
RLSW                                       R   N=          40
  7.50000000E-01  7.50000000E-01  1.00000000E+00  1.00000000E+00  2.50000000E-01
  0.00000000E+00  0.00000000E+00  1.00000000E+00  0.00000000E+00  0.00000000E+00
  0.00000000E+00  0.00000000E+00  1.00000000E+00  0.00000000E+00  0.00000000E+00
  0.00000000E+00  0.00000000E+00  1.00000000E+00  0.00000000E+00  0.00000000E+00
  0.00000000E+00  0.00000000E+00  1.00000000E+00  0.00000000E+00  0.00000000E+00
  0.00000000E+00  0.00000000E+00  1.00000000E+00  0.00000000E+00  0.00000000E+00
  0.00000000E+00  0.00000000E+00  0.00000000E+00  0.00000000E+00  0.00000000E+00
  0.00000000E+00  0.00000000E+00  0.00000000E+00  1.00000000E+00  1.00000000E+00
MxBond                                     I                3
NBond                                      I   N=          24
           3           3           3           3           3           3
           1           1           1           1           2           2
           3           3           3           3           3           3
           1           1           1           1           1           1
IBond                                      I   N=          72
           2           6           8           1           3           7
           2           4          11           3           5          24
           4           6          10           1           5           9
           2           0           0           1           0           0
           6           0           0           5           0           0
           3          12           0          11          13           0
          12          14          18          13          15          19
          14          16          20          15          17          21
          16          18          22          13          17          23
          14           0           0          15           0           0
          16           0           0          17           0           0
          18           0           0           4           0           0
RBond                                      R   N=          72
  1.50000000E+00  1.50000000E+00  1.00000000E+00  1.50000000E+00  1.50000000E+00
  1.00000000E+00  1.50000000E+00  1.00000000E+00  1.50000000E+00  1.00000000E+00
  1.50000000E+00  1.00000000E+00  1.50000000E+00  1.50000000E+00  1.00000000E+00
  1.50000000E+00  1.50000000E+00  1.00000000E+00  1.00000000E+00  0.00000000E+00
  0.00000000E+00  1.00000000E+00  0.00000000E+00  0.00000000E+00  1.00000000E+00
  0.00000000E+00  0.00000000E+00  1.00000000E+00  0.00000000E+00  0.00000000E+00
  1.50000000E+00  1.50000000E+00  0.00000000E+00  1.50000000E+00  1.50000000E+00
  0.00000000E+00  1.50000000E+00  1.50000000E+00  1.00000000E+00  1.50000000E+00
  1.50000000E+00  1.00000000E+00  1.50000000E+00  1.50000000E+00  1.00000000E+00
  1.50000000E+00  1.50000000E+00  1.00000000E+00  1.50000000E+00  1.50000000E+00
  1.00000000E+00  1.00000000E+00  1.50000000E+00  1.00000000E+00  1.00000000E+00
  0.00000000E+00  0.00000000E+00  1.00000000E+00  0.00000000E+00  0.00000000E+00
  1.00000000E+00  0.00000000E+00  0.00000000E+00  1.00000000E+00  0.00000000E+00