carbazole_s 6311gdp thf                                                 
Freq      RCAM-B3LYP TD-FC                                            6-31G(d,p)          
Number of atoms                            I               74
Info1-9                                    I   N=           9
          91          85           0           0           0         100
           6         218           1
Charge                                     I                0
Multiplicity                               I                1
Number of electrons                        I              328
Number of alpha electrons                  I              164
Number of beta electrons                   I              164
Number of basis functions                  I              860
Number of independent functions            I              860
Number of point charges in /Mol/           I                0
Number of translation vectors              I                0
Atomic numbers                             I   N=          74
           6           6           6           6           6           6
           6           6           6           6           6           6
           6           6           6           6           6           6
           6           6           6           6           6           6
           6           6           6           6           6           6
           6           6           6           6           6           6
           6           6           6           6           7           7
           7           7           7           7           7           7
           7           1           1           1           1           1
           1           1           1           1           1           1
           1           1           1           1           1           1
           1           1           1           1           1           1
           1           1
Nuclear charges                            R   N=          74
  6.00000000E+00  6.00000000E+00  6.00000000E+00  6.00000000E+00  6.00000000E+00
  6.00000000E+00  6.00000000E+00  6.00000000E+00  6.00000000E+00  6.00000000E+00
  6.00000000E+00  6.00000000E+00  6.00000000E+00  6.00000000E+00  6.00000000E+00
  6.00000000E+00  6.00000000E+00  6.00000000E+00  6.00000000E+00  6.00000000E+00
  6.00000000E+00  6.00000000E+00  6.00000000E+00  6.00000000E+00  6.00000000E+00
  6.00000000E+00  6.00000000E+00  6.00000000E+00  6.00000000E+00  6.00000000E+00
  6.00000000E+00  6.00000000E+00  6.00000000E+00  6.00000000E+00  6.00000000E+00
  6.00000000E+00  6.00000000E+00  6.00000000E+00  6.00000000E+00  6.00000000E+00
  7.00000000E+00  7.00000000E+00  7.00000000E+00  7.00000000E+00  7.00000000E+00
  7.00000000E+00  7.00000000E+00  7.00000000E+00  7.00000000E+00  1.00000000E+00
  1.00000000E+00  1.00000000E+00  1.00000000E+00  1.00000000E+00  1.00000000E+00
  1.00000000E+00  1.00000000E+00  1.00000000E+00  1.00000000E+00  1.00000000E+00
  1.00000000E+00  1.00000000E+00  1.00000000E+00  1.00000000E+00  1.00000000E+00
  1.00000000E+00  1.00000000E+00  1.00000000E+00  1.00000000E+00  1.00000000E+00
  1.00000000E+00  1.00000000E+00  1.00000000E+00  1.00000000E+00
Current cartesian coordinates              R   N=         222
 -1.89137870E+01 -2.72170074E+00 -3.43939605E-01 -1.46459180E+01 -3.56289343E+00
 -1.07221171E-01 -1.40630433E+01 -9.26995706E-01 -2.24588282E-01 -1.60810384E+01
  8.04877824E-01 -4.05854592E-01 -1.85289367E+01 -9.44598505E-02 -4.66282364E-01
 -1.14540156E+01 -2.46856814E-01 -1.49031362E-01 -9.50159591E+00 -1.99673565E+00
  2.97386202E-02 -1.00338033E+01 -4.65280432E+00  1.55305253E-01 -1.26074137E+01
 -5.44449374E+00  8.78590371E-02 -1.14248703E+01 -9.62401615E+00  3.73476024E-01
 -8.83446778E+00 -9.02565704E+00  4.51440455E-01 -8.13958903E+00 -6.51322080E+00
  3.41305327E-01 -7.70418668E+00  1.64731395E+00 -9.35678997E-02 -5.80748745E+00
  3.66238751E+00 -1.27637772E-01 -6.49232987E+00  6.24778797E+00 -1.55006676E-01
 -4.69581259E+00  8.16215047E+00 -1.85945272E-01 -2.14362974E+00  7.47108896E+00
 -1.91869563E-01 -1.40840911E+00  4.88537480E+00 -1.53882289E-01 -3.24154550E+00
  2.99629306E+00 -1.25972923E-01  1.32984563E+00  4.86315918E+00 -1.57920633E-01
  2.11056142E+00  7.43266894E+00 -1.98876668E-01  4.67750115E+00  8.07916125E+00
 -2.05590865E-01  6.43577037E+00  6.13524911E+00 -1.80672936E-01  5.70526650E+00
  3.56001916E+00 -1.44588616E-01  3.13032000E+00  2.93785706E+00 -1.36398543E-01
  7.68910666E+00  1.63139679E+00 -1.16359887E-01  1.13044268E+01 -2.26510133E-01
 -1.57533240E-01  9.52053852E+00 -2.14659661E+00  3.32100471E-02  1.01576597E+01
 -4.76411674E+00  1.68387827E-01  1.27848836E+01 -5.39125449E+00  9.43030032E-02
  1.47017405E+01 -3.38724717E+00 -1.15398016E-01  1.39527419E+01 -8.03014554E-01
 -2.38487217E-01  1.58453820E+01  1.05798963E+00 -4.33837656E-01  1.83473888E+01
  3.21472651E-01 -5.00469400E-01  1.89029192E+01 -2.27642268E+00 -3.70560177E-01
  1.18707588E+01 -9.63961773E+00  4.03760775E-01  9.24895086E+00 -9.20996392E+00
  4.89125374E-01  8.39089804E+00 -6.74950270E+00  3.70195460E-01  2.15277601E-02
  1.17421138E+01 -1.74327236E-01  3.42834115E-02  1.28176420E+01  2.51084132E+00
 -1.70584973E+01 -4.40110224E+00 -1.70740536E-01 -1.32548433E+01 -7.91741392E+00
  1.99375556E-01 -7.19421573E+00 -8.07410057E-01  6.30431535E-02 -1.02705349E+01
  2.06971310E+00 -2.23900421E-01 -3.18418853E-03  8.98174737E+00 -2.41841481E-01
  1.01535174E+01  2.09883000E+00 -2.48587804E-01  7.22274493E+00 -9.25058737E-01
  5.48455216E-02  1.71651119E+01 -4.07571030E+00 -1.85304655E-01  1.35823971E+01
 -7.81558792E+00  2.14313841E-01 -2.08268777E+01 -3.47707341E+00 -3.89907193E-01
 -1.57127667E+01  2.82141025E+00 -4.96414048E-01 -2.01275071E+01  1.18079726E+00
 -6.04706693E-01 -1.20199035E+01 -1.15921036E+01  4.58315279E-01 -7.43473441E+00
 -1.05166755E+01  5.94857441E-01 -6.17234444E+00 -5.93739857E+00  3.94487889E-01
 -1.11267434E+01  3.76511491E+00 -3.81679325E-01 -8.46782879E+00  6.79763025E+00
 -1.35880758E-01 -5.28284657E+00  1.01251299E+01 -1.95586655E-01 -2.72522319E+00
  1.01339209E+00 -1.01697502E-01  5.29666236E+00  1.00327280E+01 -2.22343287E-01
  8.43694499E+00  6.57082532E+00 -1.82804547E-01  2.49990925E+00  9.85509186E-01
 -1.21535847E-01  5.51096864E+00 -1.75067819E+00  2.00373331E-01  1.53018268E+01
  3.03281580E+00 -5.28250264E-01  1.98623067E+01  1.69471207E+00 -6.49453518E-01
  2.08620304E+01 -2.90408388E+00 -4.21187830E-01  1.25940004E+01 -1.15634761E+01
  4.95234858E-01  7.94608485E+00 -1.07844705E+01  6.44976757E-01  6.38009526E+00
 -6.34592334E+00  4.31273298E-01  1.68145375E+00  1.23806749E+01 -1.22561968E+00
 -1.62935589E+00  1.24100621E+01 -1.22178731E+00  5.29557954E-02  1.48838081E+01
  2.43948715E+00  1.70544760E+00  1.21895896E+01  3.55226939E+00 -1.64555273E+00
  1.22200898E+01  3.55636821E+00
ETran NETS                                 I               20
ETran NETV                                 I             3760
ETran scalars                              I   N=          20
          10          16           1          10           3         225
           0           0           0           0           0           0
           0           0           0           0           0           0
           0           0
ETran spin                                 I   N=          10
           0           0           0           0           0           0
           0           0           0           0
ETran sym                                  I   N=          10
           0           0           0           0           0           0
           0           0           0           0
ETran state values                         R   N=        3760
 -2.03104941E+03  3.74005814E+00 -3.04290897E-01  3.22734462E-02 -5.16767146E-01
  4.08990824E-02 -4.45701820E-03  1.53420934E-02  1.36353785E-01  4.77589561E+00
  9.41112888E-01 -4.63123291E-01  1.67397792E-04  2.20027867E+00  3.30692237E-02
  2.37746322E-02 -2.03104348E+03 -8.19721277E-02 -1.49447855E+00  1.42738199E-02
  1.18746881E-02  2.20492419E-01 -2.11587520E-03  3.96147411E-02  3.06893401E-03
 -1.19988242E-01 -3.91626675E+00 -5.19765724E-02  1.93380435E-02 -5.33936578E-02
 -9.13838014E-03  1.97648479E-02 -2.03104063E+03  7.33899919E-01 -2.86032553E-01
  4.84019355E-02 -9.85936363E-02  3.50495136E-02 -6.99282432E-03  2.37714727E-02
  5.47433435E-02  1.27926492E+00  1.67517600E+00 -1.10394796E+00 -1.54861069E-03
 -1.60592134E-01  1.29166812E-02  4.57916926E-02 -2.03103863E+03 -1.23175482E+00
  3.12942871E-02 -1.64083530E-02  1.77508803E-01 -1.58946911E-02  2.80624931E-03
  4.29599139E-03  7.77083554E-03 -7.07298972E-01 -2.22249656E+00 -3.46895701E-01
  1.60612197E-03  3.10198062E-01 -8.69441624E-02  1.54753783E-02 -2.03103525E+03
 -5.58922628E-01 -1.71490904E+00  3.36632851E-03  8.48143001E-02  2.60256493E-01
 -6.13912140E-04  4.76236266E-02  1.65109766E-01  2.16054187E+00 -4.02683758E+00
  9.22043504E-01  8.78330765E-03  1.13503018E+00 -1.79713583E-01  4.47747758E-02
 -2.03102847E+03  7.76567224E-01  6.75014986E-01 -7.00230383E-02 -1.19025646E-01
 -1.06255485E-01  1.11678480E-02 -1.34115898E-02  3.15545451E-02  1.11846513E+00
 -2.90540845E+00  7.52545795E-01 -7.66724195E-04 -9.69388234E-02  2.93412245E-02
 -3.62674261E-02 -2.03102159E+03  2.18413069E+00  8.66579983E-01 -6.73660123E-03
 -3.56944819E-01 -1.40559748E-01  1.11487175E-03 -2.34086120E-02  8.88039261E-02
  2.85953819E+00  1.95780240E+00 -3.80125317E-01 -6.62631063E-03  4.99064481E-02
  4.98640441E-02 -2.89631932E-02 -2.03102047E+03  7.66118861E-01 -2.31269549E+00
 -1.02443720E-03 -1.24011085E-01  3.78162589E-01  1.80908882E-04  8.24750392E-02
  3.25361990E-02  8.61078787E-01 -5.93157976E+00  1.35769880E+00  1.78715280E-02
 -6.34715730E-02  2.87663276E-02  7.93861950E-02 -2.03101906E+03 -3.53647018E-03
 -1.88332657E-02  2.39146803E-04  5.43726023E-04  3.06919430E-03 -6.17442231E-05
 -1.75929976E-01 -1.98408199E-01 -5.06519059E-03 -3.06653944E-02  1.59910791E-02
 -1.32705679E-02 -5.05918631E-03 -6.56895747E-02  6.27968087E-02 -2.03101902E+03
  2.21658080E-03 -1.29315602E-02 -6.42557885E-04 -3.18843403E-04  2.07776768E-03
  1.51268463E-04 -1.94975320E-01  1.77559440E-01  5.01689646E-03 -1.52326686E-02
  1.32681743E-02 -1.45364665E-02  6.89532049E-03  6.47241196E-02  6.53990494E-02
  0.00000000E+00  0.00000000E+00  0.00000000E+00  0.00000000E+00  0.00000000E+00
  0.00000000E+00  0.00000000E+00  0.00000000E+00  0.00000000E+00  0.00000000E+00
  0.00000000E+00  0.00000000E+00  0.00000000E+00  0.00000000E+00  0.00000000E+00
  0.00000000E+00  0.00000000E+00  0.00000000E+00  0.00000000E+00  0.00000000E+00
  0.00000000E+00  0.00000000E+00  0.00000000E+00  0.00000000E+00  0.00000000E+00
  0.00000000E+00  0.00000000E+00  0.00000000E+00  0.00000000E+00  0.00000000E+00
  0.00000000E+00  0.00000000E+00  0.00000000E+00  0.00000000E+00  0.00000000E+00
  0.00000000E+00  0.00000000E+00  0.00000000E+00  0.00000000E+00  0.00000000E+00
  0.00000000E+00  0.00000000E+00  0.00000000E+00  0.00000000E+00  0.00000000E+00
  0.00000000E+00  0.00000000E+00  0.00000000E+00 -3.09984689E-03 -2.11076096E+00
 -1.50133853E+00 -5.35844765E-02  2.94949507E-01  1.98889557E-01  8.29175140E-03
  5.25590724E-02  2.39449131E-01  2.52172402E+00 -9.97141694E+00  3.57327625E-01
  7.21124453E-03  2.33860772E+00 -3.61543284E-01  6.33743807E-02 -6.07137347E-03
  5.97119086E+00  4.49679712E+00  9.37517947E-02 -8.45213940E-01 -6.20767046E-01
 -1.47436025E-02 -1.46135014E-01 -3.55377142E-01 -1.62297757E+00  2.40663237E+01
 -4.14657049E-01 -5.08487269E-02 -3.95721075E+00  7.10760844E-01 -1.54068247E-01
  1.81692187E-04 -4.07609753E-01 -3.07330016E-01 -5.61529716E-02  5.75222529E-02
  4.20894589E-02  7.85715451E-03 -2.99120873E-02  1.56878160E-01  1.92678186E-01
 -1.70462240E+00  3.76405732E-02 -1.73067767E-03  3.10173713E-01 -1.82560314E-01
 -6.38998776E-03  9.30463430E-04  3.13666798E+00  2.80469049E+00 -5.42191602E-02
 -4.54458295E-01 -4.18016930E-01  7.87079932E-03 -7.75390144E-02  2.79669189E-01
  6.93894841E+00  6.76164387E+00  1.20102112E+00 -4.31650419E-02  2.69984302E+00
 -1.07203763E-01 -4.21496772E-02 -2.76734389E-03 -3.97015373E+00 -3.07894729E+00
 -1.88392157E-02  5.72310161E-01  4.44459381E-01  3.13075102E-03  9.07092435E-02
  4.70071463E-03 -2.90607856E+00 -1.33588753E+01 -3.10923260E-01  4.45401264E-02
 -2.50608418E-01 -2.25979989E-01  5.75742115E-02  2.04284559E-04  3.41315685E-01
  2.82405210E-01 -3.40797690E-03 -4.93529237E-02 -4.14987124E-02 -2.03023783E-04
  1.95835806E-02  4.48096262E-03  4.67982116E-01  9.77737476E-01  7.06191197E-02
 -3.94402323E-03  1.41790412E-01  8.48059516E-03 -7.99526243E-03  4.15905286E-03
  1.21065335E+00  9.05600781E-02  8.54214828E-02 -1.68045198E-01  8.17470292E-03
 -1.27397077E-02  1.59002405E-02 -3.62306341E-01 -5.29131767E+00  7.58998852E+00
 -6.92913911E-01  1.54995620E-02 -2.88300337E+00  3.94544772E-01 -2.86296596E-02
  1.86422328E-03  4.41939896E+00  3.73308074E+00  5.59767116E-03 -6.35142241E-01
 -5.40894430E-01 -1.27776261E-03 -1.13004812E-01  4.45845994E-02  4.23990528E+00
  1.44937673E+01  5.97993379E-01 -5.64384418E-02  6.40287915E-01  2.16778416E-01
 -7.51764349E-02  8.45359173E-05 -1.90512152E-01 -2.01630676E-01  5.65084758E-02
  2.78680697E-02  3.01429924E-02 -1.01535794E-02  8.29879328E-02 -1.78437552E-01
 -4.59283817E-01 -4.76682941E-01 -6.00813594E-02  7.71081143E-03 -1.62432972E-01
  1.54036438E-01  2.72364670E-02 -3.32207303E-03  5.56461160E+00  4.97241188E+00
 -4.14165795E-03 -7.98053905E-01 -7.15938205E-01 -5.65295795E-05 -1.62430134E-01
  5.73293039E-02  5.24188846E+00  1.80978368E+01  7.94122627E-01 -7.47314298E-02
  1.13594997E-01  2.81908653E-01 -1.26108905E-01  2.29142571E-03  2.69970846E+00
  1.87348234E+00  5.46408590E-02 -3.83137672E-01 -2.53320174E-01 -8.58726235E-03
 -4.63384037E-02 -2.36611631E-01 -2.07653342E+00  1.16659257E+01 -2.66497532E-01
 -1.46890770E-02 -2.14962037E+00  3.78011197E-01 -6.71885475E-02 -2.68664095E-04
  9.86467908E-02  1.15890895E-01 -5.62157396E-02 -1.44960406E-02 -1.76821637E-02
  8.54067680E-03 -3.35237532E-03  1.52444268E-01  3.36408168E-01  1.76261053E-01
  4.95403163E-02 -9.52770047E-03  1.18547013E-01 -1.39739806E-01  7.52297775E-03
  2.87297182E-04 -5.92565981E+00 -4.90599659E+00 -3.04939003E-02  8.46594172E-01
  6.97684128E-01  5.16000577E-03  1.59820316E-01  7.61307941E-02 -3.11293484E+00
 -2.06492224E+01 -4.11106232E-01  6.86196427E-02  1.15474464E+00 -4.27025837E-01
  1.35808956E-01  6.35452103E-03 -3.70148095E+00 -2.86576663E+00 -5.01428726E-02
  5.24997401E-01  3.96350424E-01  8.16257072E-03  8.71878633E-02  2.01658250E-01
  5.92414984E-01 -1.44712710E+01  1.04908280E-01  3.47618990E-02  2.33118926E+00
 -4.19870345E-01  1.01041151E-01 -3.29205417E-04 -6.03093854E-02 -6.16710410E-02
  6.97966668E-03  8.65255424E-03  9.46101077E-03  8.98287583E-04 -1.11673054E-01
  3.12822222E-02 -1.67907345E-01 -1.28887192E-01 -2.56369476E-02  3.79975519E-03
 -6.94993753E-02 -1.23192084E-02 -2.90489439E-02 -2.23346031E-03 -7.08886934E+00
 -5.48597394E+00 -1.10396037E-01  1.00706615E+00  7.60085320E-01  1.74172882E-02
  1.46714268E-01  4.66923014E-01  2.53475026E+00 -2.93626776E+01  3.85244055E-01
  5.52356550E-02  3.97151945E+00 -8.40882229E-01  1.63110434E-01 -1.50675385E-03
  1.85731453E+00  3.50790810E+00 -1.33022887E-02 -2.64370923E-01 -5.19654213E-01
  2.18439279E-03 -1.04578669E-01 -5.49028037E-02  6.25859444E-01  1.04949399E+01
 -2.41951758E-01 -4.24649891E-02 -2.48759766E-01  1.59942148E-01 -6.88880558E-02
 -1.97567279E-05 -3.84975634E-01 -4.30407908E-01 -5.08388880E-02  5.45835831E-02
  6.16399572E-02  8.45117694E-03  4.32459419E-02  1.01340768E-01  9.59296245E-02
 -1.79518620E+00  3.50753140E-02  2.53379527E-03  1.84859147E-01 -1.31085901E-01
  8.09049940E-03 -3.84384708E-03  5.09847550E+00  5.98258381E+00  6.37386413E-02
 -7.24838634E-01 -8.49964979E-01 -1.01971310E-02 -1.70870244E-01 -4.22262767E-01
 -3.06461289E+00  2.57281988E+01 -7.74771356E-01 -6.13647374E-02 -3.58288063E+00
  6.95406745E-01 -1.59649704E-01 -1.77657558E-03 -5.42169482E+00 -4.58737716E+00
 -5.22196046E-02  7.73173918E-01  6.53080873E-01  8.36718844E-03  1.44150651E-01
  1.78287922E-01 -1.05530223E+00 -2.09395351E+01  8.61275184E-02  5.50592375E-02
  1.54675302E+00 -4.86514630E-01  1.12429126E-01 -9.39996680E-05  4.91990513E-01
  5.10218941E-01  2.76098844E-02 -6.99552244E-02 -7.26444308E-02 -2.44810943E-03
  7.39356851E-03 -9.82795552E-02 -8.70466808E-02  2.21173542E+00 -4.49662378E-02
 -6.67584402E-03 -2.32429556E-01  6.79007972E-02 -2.25797313E-03 -5.81212807E-05
  5.40097621E+00  4.55646462E+00  1.53845248E-02 -7.74752812E-01 -6.54502245E-01
 -2.76428962E-03 -1.39785634E-01 -1.25965213E-02  3.83924421E+00  1.84938366E+01
  5.63113565E-01 -6.57698190E-02 -7.68847032E-02  3.28483688E-01 -1.07784296E-01
  4.12497134E-03  7.91429333E-01  5.36659093E-01  1.84922137E-02 -1.14877798E-01
 -7.48826201E-02 -3.02252346E-03 -3.07398226E-02 -6.58091968E-02 -4.21727700E-01
  3.39211576E+00 -6.69528638E-02 -3.84873937E-03 -6.02939173E-01  1.12734055E-01
 -1.89580597E-02 -2.36999476E-04  1.98592721E-01  1.79618272E-01 -2.35423454E-03
 -2.84780810E-02 -2.59847001E-02 -5.51288685E-04 -1.52633889E-02 -3.85161300E-02
  1.95571386E-01  6.50268441E-01  3.28392322E-02 -3.13227102E-03  2.81801820E-02
  2.52649838E-02  9.78944995E-03 -2.33344478E-03 -4.35392359E+00 -3.79672655E+00
  8.88276430E-03  6.26470530E-01  5.52583410E-01 -9.13825365E-04  1.19887770E-01
 -8.12544513E-02 -4.68269804E+00 -1.36974820E+01 -8.01505203E-01  5.50066464E-02
 -8.27638783E-01 -1.69901656E-01  8.38194830E-02 -1.41260214E-04  3.67102617E+00
  2.92945522E+00 -1.43365746E-02 -5.27474380E-01 -4.22954533E-01  1.70791028E-03
 -8.25837317E-02  1.20211158E-01  4.73984793E+00  1.02801482E+01  7.91060865E-01
 -4.00267163E-02  1.10816530E+00  8.84855060E-02 -5.86026010E-02 -1.01642101E-04
 -3.83559751E-01 -3.15461027E-01  2.67272538E-02  5.51605579E-02  4.57159752E-02
 -3.74447359E-03  1.85435192E-03 -5.60776986E-02 -4.59670211E-01 -1.13052934E+00
 -7.59987220E-02  3.40371622E-03 -9.90642869E-02  2.57298338E-02  2.22232639E-02
  3.61938146E-04  3.24075647E-01  5.58246139E-01 -2.50193940E-02 -4.38242884E-02
 -7.63966290E-02  3.57967543E-03 -1.47036048E-02  6.24044109E-02  1.29569760E+00
  4.44855791E-01  4.42696187E-01 -4.49543999E-03  3.06847491E-01 -2.67582968E-02
 -2.54088554E-02 -5.49246627E-03  2.25518510E-01  1.32084520E-01 -3.18795390E-03
 -3.17396749E-02 -2.03760063E-02  5.23120402E-04 -2.89336832E-03  2.82626565E-02
  5.56918131E-01  3.00895844E-01  2.64283221E-02 -4.11523221E-03  1.39445115E-01
 -1.25723644E-02 -9.17881283E-04  3.12190503E-04  2.77449775E-03  1.74931297E-02
 -9.61968178E-03 -3.70354671E-04 -2.25412756E-03  1.13974871E-03 -1.37263047E-02
  4.05738364E-02  1.81273753E-02  8.01660536E-03  1.46009338E-02  4.03027235E-04
  1.49209136E-03 -1.28760462E-02 -8.63022336E-03  2.37373193E-03  5.18018508E-01
  2.59244097E-01  2.30491186E-02 -7.53413582E-02 -3.79244970E-02 -3.51863955E-03
 -6.61958456E-03 -6.84445782E-02 -6.81273620E-01  2.46825303E+00 -3.22089726E-01
 -4.53889268E-03 -4.68043785E-01  8.48847566E-02  2.59513492E-03 -2.88242311E-03
 -2.69159684E+00 -2.38013000E+00  1.69834453E-02  3.84974540E-01  3.41624225E-01
 -2.09298536E-03  6.65020462E-02 -7.73423205E-02 -3.37034299E+00 -8.01827915E+00
 -6.42419227E-01  3.37373216E-02 -5.87508804E-01 -8.80406073E-02  5.67187618E-02
  2.71882629E-04  1.67936742E-01  1.38818938E-01 -1.02829961E-02 -2.41945936E-02
 -1.98970645E-02  2.92323736E-03 -4.49274343E-02  9.44616920E-02  1.49102784E-01
  5.40418646E-01  1.87932939E-02 -5.55554534E-04  1.26029878E-02 -3.53108615E-02
 -3.15783009E-02  4.71603463E-03 -1.31115351E-01  1.37039511E-01 -1.11756613E-02
  2.04778219E-02 -1.90757280E-02  1.69952789E-03 -8.89945016E-03  1.26391848E-02
  1.45660199E-01 -3.56205503E-01  2.34161223E-01  2.71418265E-03  4.57156351E-02
 -1.23180235E-02 -1.45207115E-02 -2.39177840E-04  3.21321874E+00  2.87339374E+00
 -1.91299897E-02 -4.60417613E-01 -4.13717199E-01  2.47444223E-03 -8.36305576E-02
  8.82590863E-02  3.86878057E+00  9.82556021E+00  7.73869839E-01 -4.11382103E-02
  7.05180234E-01  1.10191149E-01 -7.06899423E-02  2.06049415E-04 -1.81272545E-01
 -1.49726235E-01 -6.23785091E-03  2.60714366E-02  2.16437442E-02  1.17056420E-03
 -1.43607806E-02  4.56798569E-03 -2.12303645E-01 -5.44769094E-01 -3.53497653E-02
  3.22709662E-03 -3.98151576E-02 -1.52836499E-02 -4.41940575E-03  1.98997080E-03
  1.40642957E-02  2.95217682E+00 -3.63326137E-02  1.08428070E-02 -4.22133590E-01
  5.23084187E-03 -1.09129556E-01 -1.61592682E-01 -2.48645556E+00  6.49985315E+00
 -5.53328424E-02 -2.68568682E-02 -2.08455486E+00  1.84004587E-01 -1.12641154E-01
  3.44846083E-03  1.00969002E+00  3.72955099E+00  4.31987968E-03 -1.38514080E-01
 -5.35222291E-01 -1.12686507E-03 -1.00137393E-01 -3.11242729E-01 -4.11460663E+00
  1.22372286E+01 -6.39088423E-01 -3.26196277E-02 -2.56805440E+00  3.45483158E-01
 -1.04894404E-01  1.38909090E-05 -5.34959766E-03 -1.52455405E-01  1.78577457E-02
  4.09861526E-04  2.16140774E-02 -4.33909969E-03 -8.06638525E-03 -2.91274609E-02
  2.85920322E-01 -4.92624141E-01  5.89858432E-02  1.54654057E-03  1.38404531E-01
  1.58756672E-02 -2.73057211E-03 -2.93814461E-04  4.85441130E-01 -3.22029731E+00
  3.48531989E-02 -7.40223028E-02  4.74308931E-01 -5.45319127E-03  8.12841013E-02
  2.16230065E-01  3.49221694E+00 -6.99136945E+00  5.89678796E-01  2.25447521E-02
  1.88674486E+00 -1.73072883E-01  7.60293437E-02 -2.05341401E-03 -1.45705216E+00
 -2.06818987E+00 -1.31721562E-02  1.97132630E-01  2.70399364E-01  3.03935571E-03
  9.29707761E-02  2.12550007E-01  2.42153346E+00 -9.09483493E+00 -5.70643664E-01
  2.86942994E-02  2.78292383E+00 -3.21286773E-01  1.25926005E-01 -5.33980783E-05
  1.71574134E-03  8.74919761E-02 -1.76331266E-02  1.74268251E-04 -1.21558494E-02
  2.96138318E-03  3.91213979E-02  1.37865293E-02 -1.27002174E-01  2.48585357E-01
 -9.07546041E-03 -1.03534633E-03 -8.21210797E-02 -7.53211629E-03  9.71296040E-04
  1.87413371E-03  5.24416642E+00 -3.79041465E+00  1.03941273E-01 -7.53792857E-01
  6.03247245E-01 -1.71290737E-02  8.81106976E-02  1.93568233E-01  6.51494662E+00
  1.63754740E+00  2.32478686E+00  1.85617141E-02  8.08972319E-01  1.48893749E-01
  3.29562039E-02  2.75339186E-03  3.20042554E+00  1.89632664E-01  5.31047716E-02
 -4.49144714E-01  2.04143927E-02 -9.50514808E-03 -4.59902763E-02 -1.07459569E-01
  3.25270320E-01  8.06371236E+00  1.37523676E+00 -1.85109005E-02 -2.23496931E+00
  3.35883605E-01 -1.00325915E-01 -3.13764904E-05 -7.17090231E-02 -7.50501033E-02
 -9.31591839E-03  1.02405492E-02  1.02925812E-02  1.55330795E-03  4.13430356E-02
  1.11886703E-02  5.49910785E-02 -3.43963108E-01 -4.72353585E-04  1.95638224E-04
  7.41767835E-02 -1.81367024E-02  1.79855629E-02 -6.92271243E-03 -6.18820287E+00
  2.16491049E+00 -1.16556703E-01  8.87429352E-01 -3.73031539E-01  1.92239778E-02
 -3.66549368E-02 -7.44943841E-02 -5.54432666E+00 -7.98205402E+00 -2.06181548E+00
  2.98874615E-03 -2.46906499E-01 -3.16868834E-01  1.60983717E-02  1.75572687E-03
 -3.21584658E+00  1.39402301E+00 -5.66684877E-02  4.60308396E-01 -2.39170291E-01
  9.55948796E-03 -1.32932428E-02 -3.86746726E-02 -2.49033916E+00 -3.21518541E+00
 -1.33341397E+00 -2.51543686E-03  8.82107059E-01 -1.81507003E-01  2.82727620E-02
 -1.61542557E-05  9.49440253E-02 -1.40703355E-02  3.84492981E-02 -1.39891030E-02
  2.38019190E-03 -6.93774085E-03 -4.61025782E-02 -5.64226122E-02  8.03693115E-02
  1.40058794E-01  6.69962835E-03  2.95862517E-03 -6.54191513E-03  3.44043366E-02
 -5.88721650E-02  6.79196720E-03  6.31299031E+00 -1.72076786E+00  1.21033292E-01
 -9.10983606E-01  3.01245743E-01 -1.97361107E-02  3.38421150E-02  7.61306895E-02
  6.16085189E+00  8.97922495E+00  1.50725218E+00 -5.46759608E-03  1.54569315E+00
  2.94756538E-01  4.82695332E-03 -2.88373674E-04 -3.36522263E+00  4.27985628E+00
 -7.38331177E-02  4.87586969E-01 -6.46084490E-01  1.16210588E-02 -1.30488133E-01
 -2.64047189E-01 -5.99190922E+00  4.48664369E+00 -1.33412938E+00 -3.56555326E-02
 -1.70965086E+00  5.47090363E-02 -1.00372866E-01 -6.98561780E-06  2.58545138E-02
 -9.97188831E-02  1.00068457E-03 -4.08798158E-03  1.49850001E-02  2.96665560E-04
  9.80781356E-03 -1.20190166E-03  7.67958652E-02 -2.30738199E-01  7.35999113E-03
  1.05165599E-04  2.83822681E-02 -1.10253995E-02  4.55772866E-03 -9.21247527E-04
 -6.99538860E+00  4.22191318E+00 -1.23115314E-01  9.94376527E-01 -7.00653838E-01
  2.05987271E-02 -1.07238335E-01 -1.11233685E-01 -6.14620759E+00 -4.31533202E+00
 -3.10234011E+00 -3.86859858E-02  1.16750873E+00 -3.57515049E-01 -2.44418677E-03
 -9.01642139E-04  1.73266694E-01 -2.04830943E+00  5.57858127E-03 -3.51982607E-02
  2.85829838E-01 -3.26570607E-04  8.79796617E-02  1.82199195E-01  2.91203140E+00
 -5.25587736E+00  2.92086861E-01  1.71104545E-02  2.00791468E+00 -1.80180140E-01
  1.01432316E-01  1.39904558E-04  2.92246978E-02 -2.54274387E-02 -2.81311247E-02
 -3.91109772E-03  4.45817749E-03  5.30537460E-03  4.50036044E-02 -1.10192485E-02
  2.47355369E-02  1.86529005E-02  3.00124689E-02 -2.06212502E-03 -1.56886184E-02
  1.38370695E-03  3.37074090E-02 -3.93569353E-04  4.64753024E-01  1.77216501E+00
 -1.11463568E-02 -6.05790161E-02 -2.46976095E-01  1.43947599E-03 -4.74270371E-02
 -1.56118340E-01 -2.07610268E+00  5.65755542E+00  1.25920560E-01 -6.55377630E-03
 -1.93803009E+00  1.89280026E-01 -6.25552660E-02 -1.77597941E-03  2.86017556E+00
 -1.55881019E+00  4.98619557E-02 -4.05629827E-01  2.68385655E-01 -8.59957944E-03
  1.91463073E-02  1.62822085E-02  1.99476278E+00  2.22315303E+00  1.37431722E+00
  1.13295978E-02 -1.39061330E+00  1.91014013E-01 -3.43158591E-02 -9.01741441E-05
 -4.30033320E-02  9.23922238E-02 -4.30560341E-03  6.35389994E-03 -1.41504938E-02
  1.10056414E-03  4.52247281E-03  4.41727810E-03 -1.13988529E-01  1.46597604E-01
 -3.71305488E-02 -1.02483027E-03 -2.51476430E-02 -7.24116874E-03 -3.36322785E-03
  3.03100096E-05  6.26061441E+00 -3.76821170E+00  1.05424781E-01 -8.85827569E-01
  6.32683439E-01 -1.80200283E-02  1.01082674E-01  6.80887089E-02  5.16785767E+00
  4.65514704E+00  3.25672180E+00  3.76422009E-02 -1.51434572E+00  3.62601460E-01
 -2.49139481E-03  9.66854743E-04  5.04777493E-01  1.58847573E+00 -7.94627875E-03
 -7.77061835E-02 -2.38489602E-01  9.92193969E-04 -3.35021889E-02 -4.28471794E-02
 -2.26436282E-01  3.88203858E+00 -6.40463638E-01 -2.01508432E-02  4.00372787E-01
  5.22526488E-02 -4.55632877E-03  1.47943851E-04  1.53863195E-02 -2.49115126E-02
 -9.74421141E-04 -2.33129195E-03  3.88615569E-03  7.21775905E-04  9.15642078E-03
 -2.71856462E-03  3.23506255E-02 -1.29260625E-02  2.30632835E-02 -2.32413513E-04
  4.19349572E-03 -3.92778761E-03  1.39945626E-02  4.27912676E-03 -1.05000603E+00
  3.77650868E+00  3.97502274E-03  1.35019688E-01 -5.85139584E-01  4.09912510E-04
 -1.10263569E-01 -1.58355480E-01 -1.91434111E+00  5.09070523E+00 -3.72115797E+00
 -3.03945171E-02  2.20757713E+00  1.51543986E-02 -4.51559082E-02 -1.76723080E-03
 -2.80592011E+00 -7.34551510E-01 -3.34383527E-02  4.02705400E-01  8.13990561E-02
  6.06678256E-03  1.95418588E-02  6.16901926E-02 -1.19004990E+00 -7.35825568E+00
 -5.37228086E-01  1.12111424E-02  5.09636759E-01 -2.33946699E-01  2.84065539E-02
  1.64155499E-04  9.04128977E-02  4.50438625E-02 -4.17307972E-02 -1.30298735E-02
 -5.69680883E-03  4.78338924E-03  1.07299243E-02 -3.76150302E-02  4.71039428E-02
  2.70055136E-01 -4.39569832E-05 -3.61172015E-03  1.33729735E-03  2.68506607E-02
  3.61326537E-02 -1.08036306E-03  1.98449501E+00 -4.05492837E+00  2.24596217E-02
 -2.66813969E-01  6.34295987E-01 -4.68403316E-03  1.04883144E-01  1.49143060E-01
  2.72746883E+00 -3.22063816E+00  4.06406691E+00  2.51416547E-02 -1.88129396E+00
  4.49640801E-02  2.84518974E-02  6.51989947E-04 -3.68696052E+00  2.71261549E+00
 -8.23257821E-02  5.25176184E-01 -4.34310990E-01  1.34984793E-02 -4.67326144E-02
 -9.71949865E-02 -4.06220556E+00 -1.39347633E+00 -1.57346819E+00 -1.31925196E-02
 -4.42474020E-01 -1.35906488E-01 -1.83582983E-03 -8.80146399E-05  4.60768447E-02
 -4.84537361E-02  7.16622309E-02 -6.23232408E-03  7.28288377E-03 -1.13779120E-02
 -8.77395055E-02  6.23071383E-02  5.75480179E-02 -2.74016275E-02 -1.64910013E-03
  6.22732941E-03  1.62999334E-02 -5.18404688E-02 -9.54214883E-02  9.84390383E-04
 -3.54183542E+00  2.32221436E+00 -5.30164880E-02  5.01095817E-01 -3.84069330E-01
  9.43693434E-03 -4.89586629E-02 -6.60225130E-02 -3.17554928E+00 -2.53241306E+00
 -2.56171775E+00 -9.60886209E-03  8.43766273E-01 -1.79938147E-01  6.73898875E-03
  1.88676966E-03  2.94787425E+00 -4.72108830E+00  7.40718610E-02 -4.13867517E-01
  7.29904717E-01 -1.24022971E-02  1.01106481E-01  2.00325412E-01  4.76499806E+00
 -3.04538466E+00  3.32268130E+00  2.16305937E-02  3.81596194E-01  1.04552401E-02
  3.12374997E-02  9.81133198E-05  1.72523834E-02  1.26106939E-01 -3.90851093E-02
 -2.95184241E-03 -1.85323566E-02  6.10898810E-03  4.89755069E-02 -5.28093797E-02
 -6.75708899E-02  2.34465466E-01 -6.25876440E-02 -3.44933356E-03 -1.20206190E-02
  4.12620030E-02  4.21483316E-02 -9.28133668E-03 -6.89752252E+00 -8.91362193E-01
 -1.13507808E-01  1.01765971E+00  1.02578146E-01  1.78795231E-02  5.39729625E-02
  7.01500647E-03 -4.94847920E+00 -1.01811233E+01  1.75348762E+00  2.14969859E-02
 -1.77965526E+00 -3.40088559E-01  4.74168990E-02 -1.02103502E-03 -2.99465061E-01
  4.09120083E+00 -3.40197001E-02  3.39169726E-02 -6.15123091E-01  5.65987101E-03
 -8.99202116E-02 -1.84353735E-01 -2.74856689E+00  5.85819232E+00 -2.77079580E+00
 -2.10377010E-02 -7.75917310E-01  1.34462210E-01 -4.37916426E-02  9.08757793E-05
  4.96561239E-02 -3.84366919E-02  5.67924171E-02 -7.48940963E-03  5.98593709E-03
 -1.01419769E-02 -4.09195954E-02  3.98005333E-03  4.69925254E-02 -4.91910126E-02
  1.98203541E-02  4.14569927E-03  1.29949685E-02 -6.00593504E-02 -4.03808540E-02
  6.82371040E-03  3.81434130E+00  1.01983732E+00  7.28927805E-02 -5.70535270E-01
 -1.43187737E-01 -1.12600281E-02 -5.48499346E-02  6.34092909E-03  3.00609399E+00
  6.38934191E+00 -1.80062728E+00 -2.68831368E-02  1.92684948E+00  1.53602265E-01