Title Card Required                                                     
Freq      RHF                                                         3-21G               
Number of atoms                            I                6
Info1-9                                    I   N=           9
          14          14        1002           0           0         100
           6           1           2
Charge                                     I                0
Multiplicity                               I                1
Number of electrons                        I               26
Number of alpha electrons                  I               13
Number of beta electrons                   I               13
Number of basis functions                  I               40
Number of independent functions            I               40
Number of point charges in /Mol/           I                0
Number of translation vectors              I                0
Atomic numbers                             I   N=           6
           6           1           6           6           6           1
Nuclear charges                            R   N=           6
  6.00000000E+00  1.00000000E+00  6.00000000E+00  6.00000000E+00  6.00000000E+00
  1.00000000E+00
Current cartesian coordinates              R   N=          18
  0.00000000E+00  0.00000000E+00  3.54591334E+00  0.00000000E+00  0.00000000E+00
  5.53213532E+00  0.00000000E+00  0.00000000E+00  1.29772788E+00  1.58925830E-16
  0.00000000E+00 -1.29772788E+00  4.34249142E-16  0.00000000E+00 -3.54591334E+00
  6.77491182E-16  0.00000000E+00 -5.53213532E+00
Force Field                                I                0
Int Atom Types                             I   N=           6
           0           0           0           0           0           0
MM charges                                 R   N=           6
  0.00000000E+00  0.00000000E+00  0.00000000E+00  0.00000000E+00  0.00000000E+00
  0.00000000E+00
Integer atomic weights                     I   N=           6
          12           1          12          12          12           1
Real atomic weights                        R   N=           6
  1.20000000E+01  1.00782504E+00  1.20000000E+01  1.20000000E+01  1.20000000E+01
  1.00782504E+00
Atom fragment info                         I   N=           6
           0           0           0           0           0           0
Atom residue num                           I   N=           6
           0           0           0           0           0           0
Nuclear spins                              I   N=           6
           0           1           0           0           0           1
Nuclear ZEff                               R   N=           6
 -3.60000000E+00 -1.00000000E+00 -3.60000000E+00 -3.60000000E+00 -3.60000000E+00
 -1.00000000E+00
Nuclear ZNuc                               R   N=           6
  6.00000000E+00  1.00000000E+00  6.00000000E+00  6.00000000E+00  6.00000000E+00
  1.00000000E+00
Nuclear QMom                               R   N=           6
  0.00000000E+00  0.00000000E+00  0.00000000E+00  0.00000000E+00  0.00000000E+00
  0.00000000E+00
Nuclear GFac                               R   N=           6
  0.00000000E+00  2.79284600E+00  0.00000000E+00  0.00000000E+00  0.00000000E+00
  2.79284600E+00
MicOpt                                     I   N=           6
          -1          -1          -1          -1          -1          -1
Number of contracted shells                I               16
Number of primitive shells                 I               30
Pure/Cartesian d shells                    I                1
Pure/Cartesian f shells                    I                0
Highest angular momentum                   I                1
Largest degree of contraction              I                3
Shell types                                I   N=          16
           0          -1          -1           0           0           0
          -1          -1           0          -1          -1           0
          -1          -1           0           0
Number of primitives per shell             I   N=          16
           3           2           1           2           1           3
           2           1           3           2           1           3
           2           1           2           1
Shell to atom map                          I   N=          16
           1           1           1           2           2           3
           3           3           4           4           4           5
           5           5           6           6
Primitive exponents                        R   N=          30
  1.72256000E+02  2.59109000E+01  5.53335000E+00  3.66498000E+00  7.70545000E-01
  1.95857000E-01  5.44717800E+00  8.24547240E-01  1.83191580E-01  1.72256000E+02
  2.59109000E+01  5.53335000E+00  3.66498000E+00  7.70545000E-01  1.95857000E-01
  1.72256000E+02  2.59109000E+01  5.53335000E+00  3.66498000E+00  7.70545000E-01
  1.95857000E-01  1.72256000E+02  2.59109000E+01  5.53335000E+00  3.66498000E+00
  7.70545000E-01  1.95857000E-01  5.44717800E+00  8.24547240E-01  1.83191580E-01
Contraction coefficients                   R   N=          30
  6.17669074E-02  3.58794043E-01  7.00713084E-01 -3.95895162E-01  1.21583436E+00
  1.00000000E+00  1.56284979E-01  9.04690877E-01  1.00000000E+00  6.17669074E-02
  3.58794043E-01  7.00713084E-01 -3.95895162E-01  1.21583436E+00  1.00000000E+00
  6.17669074E-02  3.58794043E-01  7.00713084E-01 -3.95895162E-01  1.21583436E+00
  1.00000000E+00  6.17669074E-02  3.58794043E-01  7.00713084E-01 -3.95895162E-01
  1.21583436E+00  1.00000000E+00  1.56284979E-01  9.04690877E-01  1.00000000E+00
P(S=P) Contraction coefficients            R   N=          30
  0.00000000E+00  0.00000000E+00  0.00000000E+00  2.36459947E-01  8.60618806E-01
  1.00000000E+00  0.00000000E+00  0.00000000E+00  0.00000000E+00  0.00000000E+00
  0.00000000E+00  0.00000000E+00  2.36459947E-01  8.60618806E-01  1.00000000E+00
  0.00000000E+00  0.00000000E+00  0.00000000E+00  2.36459947E-01  8.60618806E-01
  1.00000000E+00  0.00000000E+00  0.00000000E+00  0.00000000E+00  2.36459947E-01
  8.60618806E-01  1.00000000E+00  0.00000000E+00  0.00000000E+00  0.00000000E+00
Coordinates of each shell                  R   N=          48
  0.00000000E+00  0.00000000E+00  3.54591334E+00  0.00000000E+00  0.00000000E+00
  3.54591334E+00  0.00000000E+00  0.00000000E+00  3.54591334E+00  0.00000000E+00
  0.00000000E+00  5.53213532E+00  0.00000000E+00  0.00000000E+00  5.53213532E+00
  0.00000000E+00  0.00000000E+00  1.29772788E+00  0.00000000E+00  0.00000000E+00
  1.29772788E+00  0.00000000E+00  0.00000000E+00  1.29772788E+00  1.58925830E-16
  0.00000000E+00 -1.29772788E+00  1.58925830E-16  0.00000000E+00 -1.29772788E+00
  1.58925830E-16  0.00000000E+00 -1.29772788E+00  4.34249142E-16  0.00000000E+00
 -3.54591334E+00  4.34249142E-16  0.00000000E+00 -3.54591334E+00  4.34249142E-16
  0.00000000E+00 -3.54591334E+00  6.77491182E-16  0.00000000E+00 -5.53213532E+00
  6.77491182E-16  0.00000000E+00 -5.53213532E+00
Constraint Structure                       R   N=          18
  0.00000000E+00  0.00000000E+00  3.54591334E+00  0.00000000E+00  0.00000000E+00
  5.53213532E+00  0.00000000E+00  0.00000000E+00  1.29772788E+00  1.58925830E-16
  0.00000000E+00 -1.29772788E+00  4.34249142E-16  0.00000000E+00 -3.54591334E+00
  6.77491182E-16  0.00000000E+00 -5.53213532E+00
Num ILSW                                   I              100
ILSW                                       I   N=         100
           0           1           0           0           2           0
           0           0           0           0           0          -1
           0           0           0           0           2           0
           0           0           1           0           1           0
           1           0           0           0           0           0
           0           0      100000           0          -1           0
           0           0           0           0           0           0
           0           0           0           1           0           0
           0           0           1           0           0           0
           0           0           4          41           0           0
           0           0           0           0           0           0
           0           0           0           0           0           0
           0           0           0           0           0           0
           0           0           0           0           0           0
           0           0           0           0           0           0
           0           0           0           0           0           0
           0           0           0           0
Num RLSW                                   I               41
RLSW                                       R   N=          41
  1.00000000E+00  1.00000000E+00  1.00000000E+00  1.00000000E+00  1.00000000E+00
  0.00000000E+00  0.00000000E+00  1.00000000E+00  0.00000000E+00  0.00000000E+00
  0.00000000E+00  0.00000000E+00  1.00000000E+00  0.00000000E+00  0.00000000E+00
  0.00000000E+00  0.00000000E+00  1.00000000E+00  0.00000000E+00  0.00000000E+00
  0.00000000E+00  0.00000000E+00  1.00000000E+00  0.00000000E+00  0.00000000E+00
  0.00000000E+00  0.00000000E+00  1.00000000E+00  0.00000000E+00  0.00000000E+00
  0.00000000E+00  0.00000000E+00  1.00000000E+00  0.00000000E+00  0.00000000E+00
  0.00000000E+00  0.00000000E+00  0.00000000E+00  1.00000000E+00  1.00000000E+00
  0.00000000E+00
MxBond                                     I                2
NBond                                      I   N=           6
           2           1           2           2           2           1
IBond                                      I   N=          12
           2           3           1           0           1           4
           3           5           4           6           5           0
RBond                                      R   N=          12
  1.00000000E+00  3.00000000E+00  1.00000000E+00  0.00000000E+00  3.00000000E+00
  1.00000000E+00  1.00000000E+00  3.00000000E+00  3.00000000E+00  1.00000000E+00
  1.00000000E+00  0.00000000E+00
Virial Ratio                               R      2.003530363860540E+00
SCF Energy                                 R     -1.516542959036345E+02
Total Energy                               R     -1.516542959036345E+02
RMS Force                                  R      2.198513079850874E-05
RMS Density                                R      1.813501683780018E-10
External E-field                           R   N=          35
  0.00000000E+00  0.00000000E+00  0.00000000E+00  0.00000000E+00  0.00000000E+00
  0.00000000E+00  0.00000000E+00  0.00000000E+00  0.00000000E+00  0.00000000E+00
  0.00000000E+00  0.00000000E+00  0.00000000E+00  0.00000000E+00  0.00000000E+00
  0.00000000E+00  0.00000000E+00  0.00000000E+00  0.00000000E+00  0.00000000E+00
  0.00000000E+00  0.00000000E+00  0.00000000E+00  0.00000000E+00  0.00000000E+00
  0.00000000E+00  0.00000000E+00  0.00000000E+00  0.00000000E+00  0.00000000E+00
  0.00000000E+00  0.00000000E+00  0.00000000E+00  0.00000000E+00  0.00000000E+00
IOpCl                                      I                0
IROHF                                      I                0
Alpha Orbital Energies                     R   N=          40
 -1.12114692E+01 -1.12107891E+01 -1.11995214E+01 -1.11995192E+01 -1.09152840E+00
 -1.03346667E+00 -8.45437994E-01 -7.32419807E-01 -7.08784477E-01 -4.98362302E-01
 -4.98362302E-01 -3.72695725E-01 -3.72695725E-01  1.35464994E-01  1.35464994E-01
  2.82879152E-01  2.95362303E-01  3.70096023E-01  3.70096023E-01  4.87996485E-01
  7.20999243E-01  7.39669739E-01  9.16388155E-01  9.16388155E-01  9.84641050E-01
  9.84641050E-01  1.01328966E+00  1.10908120E+00  1.10908120E+00  1.21265505E+00
  1.21265505E+00  1.25473354E+00  1.27521216E+00  1.43304198E+00  1.43606729E+00
  1.63954068E+00  1.67618563E+00  2.28503096E+00  2.41713965E+00  2.45736733E+00
Alpha MO coefficients                      R   N=        1600
  7.21100399E-02  2.05710530E-03  0.00000000E+00  0.00000000E+00  3.76994309E-03
 -1.28695988E-02  0.00000000E+00  0.00000000E+00 -1.82236141E-03 -3.34208876E-04
  2.87733983E-03  6.93887344E-01  6.94304274E-02  0.00000000E+00  0.00000000E+00
 -2.45114674E-03 -7.67990809E-02  0.00000000E+00  0.00000000E+00  4.99048092E-02
 -6.93887344E-01 -6.94304274E-02  0.00000000E+00  0.00000000E+00 -2.45114674E-03
  7.67990809E-02  0.00000000E+00  0.00000000E+00  4.99048092E-02 -7.21100399E-02
 -2.05710530E-03  0.00000000E+00  0.00000000E+00  3.76994309E-03  1.28695988E-02
  0.00000000E+00  0.00000000E+00 -1.82236141E-03  3.34208876E-04 -2.87733983E-03
  7.09461097E-02  1.91851321E-03  0.00000000E+00  0.00000000E+00  3.91905060E-03
  2.64823952E-02  0.00000000E+00  0.00000000E+00 -1.92816336E-02 -3.22556197E-04
  5.57475965E-03  6.93628242E-01  6.34374775E-02  0.00000000E+00  0.00000000E+00
  3.00723219E-03 -4.72853159E-02  0.00000000E+00  0.00000000E+00 -1.78414947E-02
  6.93628242E-01  6.34374775E-02  0.00000000E+00  0.00000000E+00 -3.00723219E-03
 -4.72853159E-02  0.00000000E+00  0.00000000E+00  1.78414947E-02  7.09461097E-02
  1.91851321E-03  0.00000000E+00  0.00000000E+00 -3.91905060E-03  2.64823952E-02
  0.00000000E+00  0.00000000E+00  1.92816336E-02 -3.22556197E-04  5.57475965E-03
  6.94036578E-01  6.76591127E-02  0.00000000E+00  0.00000000E+00 -1.98620676E-03
 -8.36498915E-02  0.00000000E+00  0.00000000E+00  4.16448485E-02 -4.03186888E-03
 -3.87544834E-03 -7.20630417E-02 -1.20398976E-02  0.00000000E+00  0.00000000E+00
 -4.81088878E-03  7.56215411E-02  0.00000000E+00  0.00000000E+00  4.25321648E-02
 -7.20630417E-02 -1.20398976E-02  0.00000000E+00  0.00000000E+00  4.81088878E-03
  7.56215411E-02  0.00000000E+00  0.00000000E+00 -4.25321648E-02  6.94036578E-01
  6.76591127E-02  0.00000000E+00  0.00000000E+00  1.98620676E-03 -8.36498915E-02
  0.00000000E+00  0.00000000E+00 -4.16448485E-02 -4.03186888E-03 -3.87544834E-03
  6.93830403E-01  6.73102918E-02  0.00000000E+00  0.00000000E+00 -2.16773663E-03
 -7.83660032E-02  0.00000000E+00  0.00000000E+00  3.62592941E-02 -3.69533106E-03
 -2.17061466E-03 -7.34016023E-02 -1.27049579E-02  0.00000000E+00  0.00000000E+00
 -3.92865496E-03  4.05337877E-02  0.00000000E+00  0.00000000E+00  4.90676517E-02
  7.34016023E-02  1.27049579E-02  0.00000000E+00  0.00000000E+00 -3.92865496E-03
 -4.05337877E-02  0.00000000E+00  0.00000000E+00  4.90676517E-02 -6.93830403E-01
 -6.73102918E-02  0.00000000E+00  0.00000000E+00 -2.16773663E-03  7.83660032E-02
  0.00000000E+00  0.00000000E+00  3.62592941E-02  3.69533106E-03  2.17061466E-03
 -1.04804618E-01  1.24290814E-01  0.00000000E+00  0.00000000E+00 -1.11219291E-01
  2.39730845E-01  0.00000000E+00  0.00000000E+00 -5.35979452E-02  3.82506682E-02
  9.25709847E-03 -1.50680698E-01  1.82703776E-01  0.00000000E+00  0.00000000E+00
  2.42191918E-02  2.03446090E-01  0.00000000E+00  0.00000000E+00 -3.92824808E-02
 -1.50680698E-01  1.82703776E-01  0.00000000E+00  0.00000000E+00 -2.42191918E-02
  2.03446090E-01  0.00000000E+00  0.00000000E+00  3.92824808E-02 -1.04804618E-01
  1.24290814E-01  0.00000000E+00  0.00000000E+00  1.11219291E-01  2.39730845E-01
  0.00000000E+00  0.00000000E+00  5.35979452E-02  3.82506682E-02  9.25709847E-03
 -1.34640809E-01  1.58404024E-01  0.00000000E+00  0.00000000E+00 -1.17358219E-01
  1.44588801E-01  0.00000000E+00  0.00000000E+00  5.48806467E-02  5.31468318E-02
 -1.69086795E-02 -1.08028983E-01  1.28252227E-01  0.00000000E+00  0.00000000E+00
  1.69494443E-01  2.10957598E-01  0.00000000E+00  0.00000000E+00  1.86100269E-01
  1.08028983E-01 -1.28252227E-01  0.00000000E+00  0.00000000E+00  1.69494443E-01
 -2.10957598E-01  0.00000000E+00  0.00000000E+00  1.86100269E-01  1.34640809E-01
 -1.58404024E-01  0.00000000E+00  0.00000000E+00 -1.17358219E-01 -1.44588801E-01
  0.00000000E+00  0.00000000E+00  5.48806467E-02 -5.31468318E-02  1.69086795E-02
 -1.05169761E-01  1.17647955E-01  0.00000000E+00  0.00000000E+00  1.79036994E-02
  1.40313166E-01  0.00000000E+00  0.00000000E+00  1.11020431E-01  9.61390042E-02
  1.10634336E-02  7.45553273E-02 -9.03120842E-02  0.00000000E+00  0.00000000E+00
  2.95198903E-01 -4.33984302E-02  0.00000000E+00  0.00000000E+00  1.99029114E-01
  7.45553273E-02 -9.03120842E-02  0.00000000E+00  0.00000000E+00 -2.95198903E-01
 -4.33984302E-02  0.00000000E+00  0.00000000E+00 -1.99029114E-01 -1.05169761E-01
  1.17647955E-01  0.00000000E+00  0.00000000E+00 -1.79036994E-02  1.40313166E-01
  0.00000000E+00  0.00000000E+00 -1.11020431E-01  9.61390042E-02  1.10634336E-02
 -5.88595001E-02  6.38879285E-02  0.00000000E+00  0.00000000E+00  2.65465093E-01
  3.11397068E-02  0.00000000E+00  0.00000000E+00  2.88097467E-01  2.00757850E-01
  7.53100435E-02  5.63226207E-02 -6.24255405E-02  0.00000000E+00  0.00000000E+00
 -8.02118974E-02 -8.51984205E-02  0.00000000E+00  0.00000000E+00  1.99530540E-01
 -5.63226207E-02  6.24255405E-02  0.00000000E+00  0.00000000E+00 -8.02118974E-02
  8.51984205E-02  0.00000000E+00  0.00000000E+00  1.99530540E-01  5.88595001E-02
 -6.38879285E-02  0.00000000E+00  0.00000000E+00  2.65465093E-01 -3.11397068E-02
  0.00000000E+00  0.00000000E+00  2.88097467E-01 -2.00757850E-01 -7.53100435E-02
 -2.59084508E-02  2.72062617E-02  0.00000000E+00  0.00000000E+00  2.75437127E-01
  1.02799902E-01  0.00000000E+00  0.00000000E+00  2.07400347E-01  1.82528628E-01
  9.13837229E-02  9.95156697E-03 -9.51129334E-03  0.00000000E+00  0.00000000E+00
 -2.25020576E-01  6.20604782E-02  0.00000000E+00  0.00000000E+00 -7.77228026E-02
  9.95156697E-03 -9.51129334E-03  0.00000000E+00  0.00000000E+00  2.25020576E-01
  6.20604782E-02  0.00000000E+00  0.00000000E+00  7.77228026E-02 -2.59084508E-02
  2.72062617E-02  0.00000000E+00  0.00000000E+00 -2.75437127E-01  1.02799902E-01
  0.00000000E+00  0.00000000E+00 -2.07400347E-01  1.82528628E-01  9.13837229E-02
  0.00000000E+00  0.00000000E+00  0.00000000E+00  2.05677414E-01  0.00000000E+00
  0.00000000E+00  0.00000000E+00  1.80103673E-01  0.00000000E+00  0.00000000E+00
  0.00000000E+00  0.00000000E+00  0.00000000E+00  0.00000000E+00  2.79362378E-01
  0.00000000E+00  0.00000000E+00  0.00000000E+00  2.37168817E-01  0.00000000E+00
  0.00000000E+00  0.00000000E+00  0.00000000E+00  2.79362378E-01  0.00000000E+00
  0.00000000E+00  0.00000000E+00  2.37168817E-01  0.00000000E+00  0.00000000E+00
  0.00000000E+00  0.00000000E+00  2.05677414E-01  0.00000000E+00  0.00000000E+00
  0.00000000E+00  1.80103673E-01  0.00000000E+00  0.00000000E+00  0.00000000E+00
  0.00000000E+00  0.00000000E+00  2.05677414E-01  0.00000000E+00  0.00000000E+00
  0.00000000E+00  1.80103673E-01  0.00000000E+00  0.00000000E+00  0.00000000E+00
  0.00000000E+00  0.00000000E+00  0.00000000E+00  2.79362378E-01  0.00000000E+00
  0.00000000E+00  0.00000000E+00  2.37168817E-01  0.00000000E+00  0.00000000E+00
  0.00000000E+00  0.00000000E+00  2.79362378E-01  0.00000000E+00  0.00000000E+00
  0.00000000E+00  2.37168817E-01  0.00000000E+00  0.00000000E+00  0.00000000E+00
  0.00000000E+00  2.05677414E-01  0.00000000E+00  0.00000000E+00  0.00000000E+00
  1.80103673E-01  0.00000000E+00  0.00000000E+00  0.00000000E+00  0.00000000E+00
  0.00000000E+00  0.00000000E+00  0.00000000E+00  2.77419186E-01  0.00000000E+00
  0.00000000E+00  0.00000000E+00  2.84706377E-01  0.00000000E+00  0.00000000E+00
  0.00000000E+00  0.00000000E+00  0.00000000E+00  0.00000000E+00  2.22685413E-01
  0.00000000E+00  0.00000000E+00  0.00000000E+00  2.46671470E-01  0.00000000E+00
  0.00000000E+00  0.00000000E+00  0.00000000E+00 -2.22685413E-01  0.00000000E+00
  0.00000000E+00  0.00000000E+00 -2.46671470E-01  0.00000000E+00  0.00000000E+00
  0.00000000E+00  0.00000000E+00 -2.77419186E-01  0.00000000E+00  0.00000000E+00
  0.00000000E+00 -2.84706377E-01  0.00000000E+00  0.00000000E+00  0.00000000E+00
  0.00000000E+00  0.00000000E+00  2.77419186E-01  0.00000000E+00  0.00000000E+00
  0.00000000E+00  2.84706377E-01  0.00000000E+00  0.00000000E+00  0.00000000E+00
  0.00000000E+00  0.00000000E+00  0.00000000E+00  2.22685413E-01  0.00000000E+00
  0.00000000E+00  0.00000000E+00  2.46671470E-01  0.00000000E+00  0.00000000E+00
  0.00000000E+00  0.00000000E+00 -2.22685413E-01  0.00000000E+00  0.00000000E+00
  0.00000000E+00 -2.46671470E-01  0.00000000E+00  0.00000000E+00  0.00000000E+00
  0.00000000E+00 -2.77419186E-01  0.00000000E+00  0.00000000E+00  0.00000000E+00
 -2.84706377E-01  0.00000000E+00  0.00000000E+00  0.00000000E+00  0.00000000E+00
  0.00000000E+00  0.00000000E+00  2.57763723E-01  0.00000000E+00  0.00000000E+00
  0.00000000E+00  5.68732219E-01  0.00000000E+00  0.00000000E+00  0.00000000E+00
  0.00000000E+00  0.00000000E+00  0.00000000E+00 -1.89510370E-01  0.00000000E+00
  0.00000000E+00  0.00000000E+00 -4.07638906E-01  0.00000000E+00  0.00000000E+00
  0.00000000E+00  0.00000000E+00 -1.89510370E-01  0.00000000E+00  0.00000000E+00
  0.00000000E+00 -4.07638906E-01  0.00000000E+00  0.00000000E+00  0.00000000E+00
  0.00000000E+00  2.57763723E-01  0.00000000E+00  0.00000000E+00  0.00000000E+00
  5.68732219E-01  0.00000000E+00  0.00000000E+00  0.00000000E+00  0.00000000E+00
  0.00000000E+00  0.00000000E+00  0.00000000E+00  2.57763723E-01  0.00000000E+00
  0.00000000E+00  0.00000000E+00  5.68732219E-01  0.00000000E+00  0.00000000E+00
  0.00000000E+00  0.00000000E+00  0.00000000E+00  0.00000000E+00 -1.89510370E-01
  0.00000000E+00  0.00000000E+00  0.00000000E+00 -4.07638906E-01  0.00000000E+00
  0.00000000E+00  0.00000000E+00  0.00000000E+00 -1.89510370E-01  0.00000000E+00
  0.00000000E+00  0.00000000E+00 -4.07638906E-01  0.00000000E+00  0.00000000E+00
  0.00000000E+00  0.00000000E+00  2.57763723E-01  0.00000000E+00  0.00000000E+00
  0.00000000E+00  5.68732219E-01  0.00000000E+00  0.00000000E+00  0.00000000E+00
 -8.47392966E-02  7.45038392E-02  0.00000000E+00  0.00000000E+00  1.14057940E-01
 -9.63922308E-01  0.00000000E+00  0.00000000E+00  2.07588678E+00 -7.33399925E-02
 -1.85705427E+00  5.72281866E-02 -6.34886117E-02  0.00000000E+00  0.00000000E+00
 -4.42542346E-02 -6.20212982E-02  0.00000000E+00  0.00000000E+00  2.79826662E+00
 -5.72281866E-02  6.34886117E-02  0.00000000E+00  0.00000000E+00 -4.42542346E-02
  6.20212982E-02  0.00000000E+00  0.00000000E+00  2.79826662E+00  8.47392966E-02
 -7.45038392E-02  0.00000000E+00  0.00000000E+00  1.14057940E-01  9.63922308E-01
  0.00000000E+00  0.00000000E+00  2.07588678E+00  7.33399925E-02  1.85705427E+00
  7.89733021E-02 -4.73421050E-02  0.00000000E+00  0.00000000E+00 -1.43325181E-01
 -4.43403818E-01  0.00000000E+00  0.00000000E+00 -1.34101239E+00  5.82282162E-02
  1.72011140E+00 -2.13266642E-02  5.32661407E-02  0.00000000E+00  0.00000000E+00
  1.15927866E-01 -9.72333397E-01  0.00000000E+00  0.00000000E+00 -5.00453114E-01
 -2.13266642E-02  5.32661407E-02  0.00000000E+00  0.00000000E+00 -1.15927866E-01
 -9.72333397E-01  0.00000000E+00  0.00000000E+00  5.00453114E-01  7.89733021E-02
 -4.73421050E-02  0.00000000E+00  0.00000000E+00  1.43325181E-01 -4.43403818E-01
  0.00000000E+00  0.00000000E+00  1.34101239E+00  5.82282162E-02  1.72011140E+00
  0.00000000E+00  0.00000000E+00 -1.63193963E-01  0.00000000E+00  0.00000000E+00
  0.00000000E+00 -6.79239136E-01  0.00000000E+00  0.00000000E+00  0.00000000E+00
  0.00000000E+00  0.00000000E+00  0.00000000E+00  3.28233779E-01  0.00000000E+00
  0.00000000E+00  0.00000000E+00  9.06141841E-01  0.00000000E+00  0.00000000E+00
  0.00000000E+00  0.00000000E+00 -3.28233779E-01  0.00000000E+00  0.00000000E+00
  0.00000000E+00 -9.06141841E-01  0.00000000E+00  0.00000000E+00  0.00000000E+00
  0.00000000E+00  1.63193963E-01  0.00000000E+00  0.00000000E+00  0.00000000E+00
  6.79239136E-01  0.00000000E+00  0.00000000E+00  0.00000000E+00  0.00000000E+00
  0.00000000E+00  0.00000000E+00  0.00000000E+00 -1.63193963E-01  0.00000000E+00
  0.00000000E+00  0.00000000E+00 -6.79239136E-01  0.00000000E+00  0.00000000E+00
  0.00000000E+00  0.00000000E+00  0.00000000E+00  0.00000000E+00  3.28233779E-01
  0.00000000E+00  0.00000000E+00  0.00000000E+00  9.06141841E-01  0.00000000E+00
  0.00000000E+00  0.00000000E+00  0.00000000E+00 -3.28233779E-01  0.00000000E+00
  0.00000000E+00  0.00000000E+00 -9.06141841E-01  0.00000000E+00  0.00000000E+00
  0.00000000E+00  0.00000000E+00  1.63193963E-01  0.00000000E+00  0.00000000E+00
  0.00000000E+00  6.79239136E-01  0.00000000E+00  0.00000000E+00  0.00000000E+00
  6.56061229E-02 -9.42627073E-02  0.00000000E+00  0.00000000E+00  2.63033973E-01
 -1.69729377E+00  0.00000000E+00  0.00000000E+00  1.68438906E+00  8.70741392E-02
 -9.00999059E-01 -1.57771918E-01  3.48420733E-02  0.00000000E+00  0.00000000E+00
 -2.68338188E-01  2.53702052E+00  0.00000000E+00  0.00000000E+00  1.30433640E+00
  1.57771918E-01 -3.48420733E-02  0.00000000E+00  0.00000000E+00 -2.68338188E-01
 -2.53702052E+00  0.00000000E+00  0.00000000E+00  1.30433640E+00 -6.56061229E-02
  9.42627073E-02  0.00000000E+00  0.00000000E+00  2.63033973E-01  1.69729377E+00
  0.00000000E+00  0.00000000E+00  1.68438906E+00 -8.70741392E-02  9.00999059E-01
  9.50169165E-02  1.43077334E-01  0.00000000E+00  0.00000000E+00  6.91815011E-02
 -3.60842618E+00  0.00000000E+00  0.00000000E+00  3.38082616E+00  3.63383796E-01
 -1.62743334E+00 -7.17447763E-02 -5.79425794E-02  0.00000000E+00  0.00000000E+00
  3.34979374E-01  4.81172011E+00  0.00000000E+00  0.00000000E+00  2.49779518E+00
 -7.17447763E-02 -5.79425794E-02  0.00000000E+00  0.00000000E+00 -3.34979374E-01
  4.81172011E+00  0.00000000E+00  0.00000000E+00 -2.49779518E+00  9.50169165E-02
  1.43077334E-01  0.00000000E+00  0.00000000E+00 -6.91815011E-02 -3.60842618E+00
  0.00000000E+00  0.00000000E+00 -3.38082616E+00  3.63383796E-01 -1.62743334E+00
  7.30443209E-02  3.03798116E-01  0.00000000E+00  0.00000000E+00 -1.54742983E-01
 -7.96659007E+00  0.00000000E+00  0.00000000E+00  5.70560827E+00  3.35560511E-01
 -2.06342053E+00 -1.60290421E-03  2.07200821E-01  0.00000000E+00  0.00000000E+00
  2.97382480E-01  6.73488819E-01  0.00000000E+00  0.00000000E+00  9.94928094E+00
  1.60290421E-03 -2.07200821E-01  0.00000000E+00  0.00000000E+00  2.97382480E-01
 -6.73488819E-01  0.00000000E+00  0.00000000E+00  9.94928094E+00 -7.30443209E-02
 -3.03798116E-01  0.00000000E+00  0.00000000E+00 -1.54742983E-01  7.96659007E+00
  0.00000000E+00  0.00000000E+00  5.70560827E+00 -3.35560511E-01  2.06342053E+00
  0.00000000E+00  0.00000000E+00  0.00000000E+00  4.92440084E-01  0.00000000E+00
  0.00000000E+00  0.00000000E+00 -3.93995042E-01  0.00000000E+00  0.00000000E+00
  0.00000000E+00  0.00000000E+00  0.00000000E+00  0.00000000E+00  5.46014994E-01
  0.00000000E+00  0.00000000E+00  0.00000000E+00 -3.73793312E-01  0.00000000E+00
  0.00000000E+00  0.00000000E+00  0.00000000E+00  5.46014994E-01  0.00000000E+00
  0.00000000E+00  0.00000000E+00 -3.73793312E-01  0.00000000E+00  0.00000000E+00
  0.00000000E+00  0.00000000E+00  4.92440084E-01  0.00000000E+00  0.00000000E+00
  0.00000000E+00 -3.93995042E-01  0.00000000E+00  0.00000000E+00  0.00000000E+00
  0.00000000E+00  0.00000000E+00  4.92440084E-01  0.00000000E+00  0.00000000E+00
  0.00000000E+00 -3.93995042E-01  0.00000000E+00  0.00000000E+00  0.00000000E+00
  0.00000000E+00  0.00000000E+00  0.00000000E+00  5.46014994E-01  0.00000000E+00
  0.00000000E+00  0.00000000E+00 -3.73793312E-01  0.00000000E+00  0.00000000E+00
  0.00000000E+00  0.00000000E+00  5.46014994E-01  0.00000000E+00  0.00000000E+00
  0.00000000E+00 -3.73793312E-01  0.00000000E+00  0.00000000E+00  0.00000000E+00
  0.00000000E+00  4.92440084E-01  0.00000000E+00  0.00000000E+00  0.00000000E+00
 -3.93995042E-01  0.00000000E+00  0.00000000E+00  0.00000000E+00  0.00000000E+00
  0.00000000E+00  0.00000000E+00  7.30441369E-01  0.00000000E+00  0.00000000E+00
  0.00000000E+00 -6.31960154E-01  0.00000000E+00  0.00000000E+00  0.00000000E+00
  0.00000000E+00  0.00000000E+00  0.00000000E+00  2.02614709E-01  0.00000000E+00
  0.00000000E+00  0.00000000E+00 -1.69673728E-01  0.00000000E+00  0.00000000E+00
  0.00000000E+00  0.00000000E+00 -2.02614709E-01  0.00000000E+00  0.00000000E+00
  0.00000000E+00  1.69673728E-01  0.00000000E+00  0.00000000E+00  0.00000000E+00
  0.00000000E+00 -7.30441369E-01  0.00000000E+00  0.00000000E+00  0.00000000E+00
  6.31960154E-01  0.00000000E+00  0.00000000E+00  0.00000000E+00  0.00000000E+00
  0.00000000E+00  0.00000000E+00  0.00000000E+00  7.30441369E-01  0.00000000E+00
  0.00000000E+00  0.00000000E+00 -6.31960154E-01  0.00000000E+00  0.00000000E+00
  0.00000000E+00  0.00000000E+00  0.00000000E+00  0.00000000E+00  2.02614709E-01
  0.00000000E+00  0.00000000E+00  0.00000000E+00 -1.69673728E-01  0.00000000E+00
  0.00000000E+00  0.00000000E+00  0.00000000E+00 -2.02614709E-01  0.00000000E+00
  0.00000000E+00  0.00000000E+00  1.69673728E-01  0.00000000E+00  0.00000000E+00
  0.00000000E+00  0.00000000E+00 -7.30441369E-01  0.00000000E+00  0.00000000E+00
  0.00000000E+00  6.31960154E-01  0.00000000E+00  0.00000000E+00  0.00000000E+00
 -1.93729589E-02  4.02653244E-01  0.00000000E+00  0.00000000E+00 -4.50076089E-01
  1.72572214E-02  0.00000000E+00  0.00000000E+00  6.08359750E-01  2.00424247E-01
 -4.97855084E-01  2.99238548E-03  7.30035480E-01  0.00000000E+00  0.00000000E+00
 -2.00492891E-01 -4.75845637E-01  0.00000000E+00  0.00000000E+00 -4.39896127E-02
  2.99238548E-03  7.30035480E-01  0.00000000E+00  0.00000000E+00  2.00492891E-01
 -4.75845637E-01  0.00000000E+00  0.00000000E+00  4.39896127E-02 -1.93729589E-02
  4.02653244E-01  0.00000000E+00  0.00000000E+00  4.50076089E-01  1.72572214E-02
  0.00000000E+00  0.00000000E+00 -6.08359750E-01  2.00424247E-01 -4.97855084E-01
  0.00000000E+00  0.00000000E+00 -5.98689066E-01  0.00000000E+00  0.00000000E+00
  0.00000000E+00  7.14515219E-01  0.00000000E+00  0.00000000E+00  0.00000000E+00
  0.00000000E+00  0.00000000E+00  0.00000000E+00  5.39347574E-01  0.00000000E+00
  0.00000000E+00  0.00000000E+00 -5.83137075E-01  0.00000000E+00  0.00000000E+00
  0.00000000E+00  0.00000000E+00  5.39347574E-01  0.00000000E+00  0.00000000E+00