    -----------------------------------------------------------------------
          PSI4: An Open-Source Ab Initio Electronic Structure Package
                              PSI 4.0 Driver

               Git: Rev {master} 3815c4672b20557818d653694ff2cb5c78819708

    J. M. Turney, A. C. Simmonett, R. M. Parrish, E. G. Hohenstein,
    F. A. Evangelista, J. T. Fermann, B. J. Mintz, L. A. Burns, J. J. Wilke,
    M. L. Abrams, N. J. Russ, M. L. Leininger, C. L. Janssen, E. T. Seidl,
    W. D. Allen, H. F. Schaefer, R. A. King, E. F. Valeev, C. D. Sherrill,
    and T. D. Crawford, WIREs Comput. Mol. Sci. 2, 556-565 (2012)
    (doi: 10.1002/wcms.93)

                         Additional Contributions by
    A. E. DePrince, M. Saitow, U. Bozkaya, A. Yu. Sokolov
    -----------------------------------------------------------------------

    Process ID:  11441
    PSI4DATADIR: /home/javier/Programas/Psi4_dev/share/psi
    Memory level set to 256.000 MB

  ==> Input File <==

--------------------------------------------------------------------------
set basis  jun-cc-pVDZ
molecule {
0 1
    O           -0.054818202529     0.038762543013     0.000000000000
    H           -0.001316791162    -0.924639756573     0.000000000000
    H            0.871321445886     0.309450069677     0.000000000000
}
set print 3
#set DO_PARALLEL = true
frequencies('CCSD')
--------------------------------------------------------------------------

-------------------------------------------------------------

  Using finite-differences of gradients to determine vibrational frequencies and 
  normal modes.  Resulting frequencies are only valid at stationary points.
	Generating geometries for use with 3-point formula.
	Displacement size will be 5.00e-03.
	Number of atoms is 3.
	Number of irreps is 2.
	Number of SALCS is 3.
	Index of salcs per irrep:
	 1 :  0  1  2 
	 2 : 
	Number of SALC's per irrep:
		 Irrep 1: 3
		 Irrep 2: 0
	Number of geometries (including reference) is 7.
	Number of displacements per irrep:
	  Irrep 1: 6
	  Irrep 2: 0
	irrep = 0, ncomponent = 6
		0: atom 0, direction x, coef 0.313893
		1: atom 0, direction y, coef -0.060308
		2: atom 1, direction x, coef -0.454845
		3: atom 1, direction y, coef -0.000364
		4: atom 2, direction x, coef -0.795645
		5: atom 2, direction y, coef 0.240620
	irrep = 0, ncomponent = 5
		0: atom 0, direction y, coef 0.285493
		1: atom 1, direction x, coef 0.300948
		2: atom 1, direction y, coef -0.781479
		3: atom 2, direction x, coef -0.300948
		4: atom 2, direction y, coef -0.355872
	irrep = 0, ncomponent = 4
		0: atom 1, direction x, coef 0.408250
		1: atom 1, direction y, coef 0.577349
		2: atom 2, direction x, coef -0.408250
		3: atom 2, direction y, coef -0.577349
  ## Coord: 0, Disp: -1 (Symmetry 0) ##
  Irrep: 1 Size: 3 x 3

                 1                   2                   3

    1    -0.10398381894241     0.07332598764718     0.00000000000000
    2    -0.00022299328035    -1.74731410038256     0.00000000000000
    3     1.65052165909491     0.58357746506344     0.00000000000000



  ## Coord: 0, Disp: 1 (Symmetry 0) ##
  Irrep: 1 Size: 3 x 3

                 1                   2                   3

    1    -0.10319896081115     0.07317519336934     0.00000000000000
    2    -0.00475375606024    -1.74731772262049     0.00000000000000
    3     1.64259615377422     0.58597430191936     0.00000000000000



  ## Coord: 1, Disp: -1 (Symmetry 0) ##
  Irrep: 1 Size: 3 x 3

                 1                   2                   3

    1    -0.10359138987678     0.07289366712170     0.00000000000000
    2    -0.00398726238400    -1.74342371524116     0.00000000000000
    3     1.64805779414827     0.58654832038872     0.00000000000000



  ## Coord: 1, Disp: 1 (Symmetry 0) ##
  Irrep: 1 Size: 3 x 3

                 1                   2                   3

    1    -0.10359138987678     0.07360751389482     0.00000000000000
    2    -0.00098948695660    -1.75120810776189     0.00000000000000
    3     1.64506001872087     0.58300344659408     0.00000000000000



  ## Coord: 2, Disp: -1 (Symmetry 0) ##
  Irrep: 1 Size: 3 x 3

                 1                   2                   3

    1    -0.10359138987678     0.07325059050826     0.00000000000000
    2    -0.00452168399228    -1.75019142880223     0.00000000000000
    3     1.64859221575655     0.58765140079210     0.00000000000000



  ## Coord: 2, Disp: 1 (Symmetry 0) ##
  Irrep: 1 Size: 3 x 3

                 1                   2                   3

    1    -0.10359138987678     0.07325059050826     0.00000000000000
    2    -0.00045506534831    -1.74444039420083     0.00000000000000
    3     1.64452559711258     0.58190036619070     0.00000000000000



  ## Reference geometry (Symmetry 0) ##
  Irrep: 1 Size: 3 x 3

                 1                   2                   3

    1    -0.10359138987678     0.07325059050826     0.00000000000000
    2    -0.00248837467030    -1.74731591150153     0.00000000000000
    3     1.64655890643457     0.58477588349140     0.00000000000000




-------------------------------------------------------------

  //>>>>>>>>>>>>>>>>>>>>>>>>>>>>>>>>>>>//
  //    Loading displacement 1 of 7    //
  //<<<<<<<<<<<<<<<<<<<<<<<<<<<<<<<<<<<//

*** tstart() called on avila.localdomain
*** at Wed Feb 25 10:36:33 2015

   => Loading Basis Set <=

    Role: BASIS
    Keyword: BASIS
    Name: JUN-CC-PVDZ
    atoms 1   entry O          line   225 file /home/javier/Programas/Psi4_dev/share/psi/basis/jun-cc-pvdz.gbs
    atoms 2-3 entry H          line    35 file /home/javier/Programas/Psi4_dev/share/psi/basis/jun-cc-pvdz.gbs


         ---------------------------------------------------------
                                   SCF
            by Justin Turney, Rob Parrish, and Andy Simmonett
                              RHF Reference
                        1 Threads,    256 MiB Core
         ---------------------------------------------------------

  ==> Geometry <==

    Molecular point group: cs
    Full point group: Cs

    Geometry (in Angstrom), charge = 0, multiplicity = 1:

       Center              X                  Y                   Z       
    ------------   -----------------  -----------------  -----------------
           O         -0.055025867046     0.038802441460     0.000000000000
           H         -0.000118002962    -0.924638798170     0.000000000000
           H          0.873418444277     0.308815893958     0.000000000000

           O
              BASIS           JUN-CC-PVDZ          d8d988eb85ed77626e0a22d0d48f2e0f72bf06fa
           H
              BASIS           JUN-CC-PVDZ          ffa48e68d852b7ce2683e22f1b3edf2f547a71f6
           H
              BASIS           JUN-CC-PVDZ          ffa48e68d852b7ce2683e22f1b3edf2f547a71f6

  Running in cs symmetry.

  Rotational constants: A =     26.01808  B =     14.64375  C =      9.37002 [cm^-1]
  Rotational constants: A = 780002.28651  B = 439008.65485  C = 280906.21910 [MHz]
  Nuclear repulsion =    9.115345762917300

  Charge       = 0
  Multiplicity = 1
  Electrons    = 10
  Nalpha       = 5
  Nbeta        = 5

  ==> Algorithm <==

  SCF Algorithm Type is PK.
  DIIS enabled.
  MOM disabled.
  Fractional occupation disabled.
  Guess Type is CORE.
  Energy threshold   = 1.00e-10
  Density threshold  = 1.00e-10
  Integral threshold = 0.00e+00

  ==> Primary Basis <==

  -AO BASIS SET INFORMATION:
    Name                   = JUN-CC-PVDZ
    Total number of shells = 14
    Number of primitives   = 34
    Number of AO           = 29
    Number of SO           = 28
    Maximum AM             = 2
    Spherical Harmonics    = TRUE

  -Contraction Scheme:
    Atom   Type   All Primitives // Shells:
   ------ ------ --------------------------
       1     O     18s 5p 1d // 4s 3p 1d 
       2     H     4s 1p // 2s 1p 
       3     H     4s 1p // 2s 1p 

  ==> AO Basis Functions <==

    [ JUN-CC-PVDZ ]
    spherical
    ****
    O   1
    S   8 1.00
                     11720.00000000           0.00071000
                      1759.00000000           0.00547000
                       400.80000000           0.02783700
                       113.70000000           0.10480000
                        37.03000000           0.28306200
                        13.27000000           0.44871900
                         5.02500000           0.27095200
                         1.01300000           0.01545800
    S   8 1.00
                     11720.00000000          -0.00016000
                      1759.00000000          -0.00126300
                       400.80000000          -0.00626700
                       113.70000000          -0.02571600
                        37.03000000          -0.07092400
                        13.27000000          -0.16541100
                         5.02500000          -0.11695500
                         1.01300000           0.55736800
    S   1 1.00
                         0.30230000           1.00000000
    P   3 1.00
                        17.70000000           0.04301800
                         3.85400000           0.22891300
                         1.04600000           0.50872800
    P   1 1.00
                         0.27530000           1.00000000
    D   1 1.00
                         1.18500000           1.00000000
    S   1 1.00
                         0.07896000           1.00000000
    P   1 1.00
                         0.06856000           1.00000000
    ****
    H   2
    S   3 1.00
                        13.01000000           0.01968500
                         1.96200000           0.13797700
                         0.44460000           0.47814800
    S   1 1.00
                         0.12200000           1.00000000
    P   1 1.00
                         0.72700000           1.00000000
    ****
    H   3
    S   3 1.00
                        13.01000000           0.01968500
                         1.96200000           0.13797700
                         0.44460000           0.47814800
    S   1 1.00
                         0.12200000           1.00000000
    P   1 1.00
                         0.72700000           1.00000000
    ****

  ==> Pre-Iterations <==

   -------------------------------------------------------
    Irrep   Nso     Nmo     Nalpha   Nbeta   Ndocc  Nsocc
   -------------------------------------------------------
     A'        21      21       0       0       0       0
     A"         7       7       0       0       0       0
   -------------------------------------------------------
    Total      28      28       5       5       5       0
   -------------------------------------------------------

  Starting with a DF guess...

   => Loading Basis Set <=

    Role: BASIS
    Keyword: BASIS
    Name: JUN-CC-PVDZ
    atoms 1   entry O          line   225 file /home/javier/Programas/Psi4_dev/share/psi/basis/jun-cc-pvdz.gbs
    atoms 2-3 entry H          line    35 file /home/javier/Programas/Psi4_dev/share/psi/basis/jun-cc-pvdz.gbs

 OEINTS: Overlap, kinetic, potential, dipole, and quadrupole integrals
         stored in file 35.

  ==> Integral Setup <==

   => Loading Basis Set <=

    Role: BASIS
    Keyword: BASIS
    Name: JUN-CC-PVDZ
    atoms 1   entry O          line   225 file /home/javier/Programas/Psi4_dev/share/psi/basis/jun-cc-pvdz.gbs
    atoms 2-3 entry H          line    35 file /home/javier/Programas/Psi4_dev/share/psi/basis/jun-cc-pvdz.gbs

   => Loading Basis Set <=

    Role: JKFIT
    Keyword: DF_BASIS_SCF
    Name: 
    atoms 1   entry O          line   257 file /home/javier/Programas/Psi4_dev/share/psi/basis/jun-cc-pvdz-jkfit.gbs
    atoms 2-3 entry H          line    69 file /home/javier/Programas/Psi4_dev/share/psi/basis/jun-cc-pvdz-jkfit.gbs

  ==> DFJK: Density-Fitted J/K Matrices <==

    J tasked:                  Yes
    K tasked:                  Yes
    wK tasked:                  No
    OpenMP threads:              1
    Integrals threads:           1
    Memory (MB):               183
    Algorithm:                Core
    Integral Cache:           NONE
    Schwarz Cutoff:          1E-12
    Fitting Condition:       1E-12

   => Auxiliary Basis Set <=

  -AO BASIS SET INFORMATION:
    Name                   = 
    Total number of shells = 45
    Number of primitives   = 45
    Number of AO           = 141
    Number of SO           = 125
    Maximum AM             = 3
    Spherical Harmonics    = TRUE

  -Contraction Scheme:
    Atom   Type   All Primitives // Shells:
   ------ ------ --------------------------
       1     O     11s 8p 6d 2f // 11s 8p 6d 2f 
       2     H     4s 3p 2d // 4s 3p 2d 
       3     H     4s 3p 2d // 4s 3p 2d 

  ==> AO Basis Functions <==

    [  ]
    spherical
    ****
    O   1
    S   1 1.00
                      1517.86675060           1.00000000
    S   1 1.00
                       489.67952008           1.00000000
    S   1 1.00
                       176.72118665           1.00000000
    S   1 1.00
                        63.79223314           1.00000000
    S   1 1.00
                        25.36649913           1.00000000
    S   1 1.00
                         9.91354912           1.00000000
    S   1 1.00
                         4.46453066           1.00000000
    S   1 1.00
                         1.80177437           1.00000000
    S   1 1.00
                         0.80789711           1.00000000
    S   1 1.00
                         0.33864327           1.00000000
    P   1 1.00
                       120.16030921           1.00000000
    P   1 1.00
                        34.40962247           1.00000000
    P   1 1.00
                        12.58114861           1.00000000
    P   1 1.00
                         5.06638242           1.00000000
    P   1 1.00
                         2.03469271           1.00000000
    P   1 1.00
                         0.86092967           1.00000000
    P   1 1.00
                         0.36681357           1.00000000
    D   1 1.00
                        19.04306281           1.00000000
    D   1 1.00
                         5.80603811           1.00000000
    D   1 1.00
                         2.18918416           1.00000000
    D   1 1.00
                         0.87794614           1.00000000
    D   1 1.00
                         0.35623647           1.00000000
    F   1 1.00
                         2.49391479           1.00000000
    F   1 1.00
                         0.82491479           1.00000000
    S   1 1.00
                         0.14194786           1.00000000
    P   1 1.00
                         0.15628709           1.00000000
    D   1 1.00
                         0.14454693           1.00000000
    ****
    H   2
    S   1 1.00
                         9.53024933           1.00000000
    S   1 1.00
                         1.91745062           1.00000000
    S   1 1.00
                         0.68424049           1.00000000
    S   1 1.00
                         0.28413256           1.00000000
    P   1 1.00
                         2.91332320           1.00000000
    P   1 1.00
                         1.26212054           1.00000000
    P   1 1.00
                         0.50199776           1.00000000
    D   1 1.00
                         2.31353291           1.00000000
    D   1 1.00
                         0.71290724           1.00000000
    ****
    H   3
    S   1 1.00
                         9.53024933           1.00000000
    S   1 1.00
                         1.91745062           1.00000000
    S   1 1.00
                         0.68424049           1.00000000
    S   1 1.00
                         0.28413256           1.00000000
    P   1 1.00
                         2.91332320           1.00000000
    P   1 1.00
                         1.26212054           1.00000000
    P   1 1.00
                         0.50199776           1.00000000
    D   1 1.00
                         2.31353291           1.00000000
    D   1 1.00
                         0.71290724           1.00000000
    ****

  Minimum eigenvalue in the overlap matrix is 1.2288569723E-02.
  Using Symmetric Orthogonalization.
  SCF Guess: Core (One-Electron) Hamiltonian.

  ==> Iterations <==

                           Total Energy        Delta E     RMS |[F,P]|

    Occupation by irrep:
             Ap   App 
    DOCC [     4,    1 ]

   @DF-RHF iter   1:   -68.76976193087215   -6.87698e+01   1.42515e-01 
DIIS coefficients:  0.427  0.573 
    Occupation by irrep:
             Ap   App 
    DOCC [     4,    1 ]

   @DF-RHF iter   2:   -67.92467939404970    8.45083e-01   1.17238e-01 DIIS
DIIS coefficients:  -0.294  0.176  1.118 
    Occupation by irrep:
             Ap   App 
    DOCC [     4,    1 ]

   @DF-RHF iter   3:   -75.46173088289069   -7.53705e+00   5.57860e-02 DIIS
DIIS coefficients:  0.041  0.028  -0.757  1.688 
    Occupation by irrep:
             Ap   App 
    DOCC [     4,    1 ]

   @DF-RHF iter   4:   -75.92719228103738   -4.65461e-01   2.36213e-02 DIIS
DIIS coefficients:  0.007  -0.001  0.020  -0.116  1.090 
    Occupation by irrep:
             Ap   App 
    DOCC [     4,    1 ]

   @DF-RHF iter   5:   -76.03610255964657   -1.08910e-01   1.27863e-03 DIIS
DIIS coefficients:  -0.001  -0.001  0.010  0.019  -0.149  1.121 
    Occupation by irrep:
             Ap   App 
    DOCC [     4,    1 ]

   @DF-RHF iter   6:   -76.03670828206904   -6.05722e-04   8.47564e-04 DIIS
DIIS coefficients:  -0.000  -0.000  -0.002  0.002  -0.008  -0.284  1.292 
    Occupation by irrep:
             Ap   App 
    DOCC [     4,    1 ]

   @DF-RHF iter   7:   -76.03683569843656   -1.27416e-04   1.53880e-04 DIIS
DIIS coefficients:  0.000  0.000  0.000  -0.002  0.010  0.055  -0.489  1.426 
    Occupation by irrep:
             Ap   App 
    DOCC [     4,    1 ]

   @DF-RHF iter   8:   -76.03684219458187   -6.49615e-06   1.69966e-05 DIIS
DIIS coefficients:  -0.000  0.000  -0.000  0.001  -0.004  -0.009  0.133  -0.474  1.353 
    Occupation by irrep:
             Ap   App 
    DOCC [     4,    1 ]

   @DF-RHF iter   9:   -76.03684240134339   -2.06762e-07   5.17178e-06 DIIS
DIIS coefficients:  0.000  0.000  0.000  -0.000  0.001  0.002  -0.037  0.138  -0.478  1.374 
    Occupation by irrep:
             Ap   App 
    DOCC [     4,    1 ]

   @DF-RHF iter  10:   -76.03684240814613   -6.80274e-09   4.35864e-07 DIIS
DIIS coefficients:  1.362  -0.000  -0.000  0.000  -0.000  -0.000  0.008  -0.029  0.115  -0.455 
    Occupation by irrep:
             Ap   App 
    DOCC [     4,    1 ]

   @DF-RHF iter  11:   -76.03684240824158   -9.54543e-11   8.21867e-08 DIIS
DIIS coefficients:  -0.251  1.215  0.000  -0.000  0.000  0.000  -0.000  0.002  -0.009  0.044 
    Occupation by irrep:
             Ap   App 
    DOCC [     4,    1 ]

   @DF-RHF iter  12:   -76.03684240824460   -3.01270e-12   9.00967e-09 DIIS
DIIS coefficients:  0.023  -0.230  1.207  -0.000  0.000  0.000  -0.000  0.000  -0.000  -0.001 
    Occupation by irrep:
             Ap   App 
    DOCC [     4,    1 ]

   @DF-RHF iter  13:   -76.03684240824478   -1.84741e-13   1.49292e-09 DIIS
DIIS coefficients:  -0.003  0.036  -0.276  1.243  -0.000  -0.000  0.000  -0.000  -0.000  0.000 
    Occupation by irrep:
             Ap   App 
    DOCC [     4,    1 ]

   @DF-RHF iter  14:   -76.03684240824469    8.52651e-14   1.59973e-10 DIIS
DIIS coefficients:  -0.000  0.000  0.013  -0.162  1.149  -0.000  0.000  -0.000  -0.000  0.000 
    Occupation by irrep:
             Ap   App 
    DOCC [     4,    1 ]

   @DF-RHF iter  15:   -76.03684240824447    2.27374e-13   2.39860e-11 DIIS

  DF guess converged.

  ==> Integral Setup <==

   => Loading Basis Set <=

    Role: BASIS
    Keyword: BASIS
    Name: JUN-CC-PVDZ
    atoms 1   entry O          line   225 file /home/javier/Programas/Psi4_dev/share/psi/basis/jun-cc-pvdz.gbs
    atoms 2-3 entry H          line    35 file /home/javier/Programas/Psi4_dev/share/psi/basis/jun-cc-pvdz.gbs

   => Loading Basis Set <=

    Role: BASIS
    Keyword: BASIS
    Name: JUN-CC-PVDZ
    atoms 1   entry O          line   225 file /home/javier/Programas/Psi4_dev/share/psi/basis/jun-cc-pvdz.gbs
    atoms 2-3 entry H          line    35 file /home/javier/Programas/Psi4_dev/share/psi/basis/jun-cc-pvdz.gbs

 MINTS: Wrapper to libmints.
   by Justin Turney

   Calculation information:
      Number of atoms:                   3
      Number of AO shells:              14
      Number of SO shells:              14
      Number of primitives:             34
      Number of atomic orbitals:        29
      Number of basis functions:        28

      Number of irreps:                  2
      Integral cutoff                 0.00e+00
      Number of functions per irrep: [  21    7 ]

 OEINTS: Overlap, kinetic, potential, dipole, and quadrupole integrals
         stored in file 35.

      Computing two-electron integrals...done
      Computed 39974 non-zero two-electron integrals.
        Stored in file 33.

	Batch   1 pq = [       0,     259] index = [             0,33670]
  ==> DiskJK: Disk-Based J/K Matrices <==

    J tasked:                  Yes
    K tasked:                  Yes
    wK tasked:                  No
    Memory (MB):               183
    Schwarz Cutoff:          1E-12

DIIS coefficients:  1.000 
    Occupation by irrep:
             Ap   App 
    DOCC [     4,    1 ]

   @RHF iter  16:   -76.03686623524470   -2.38270e-05   7.70384e-06 DIIS
DIIS coefficients:  -0.086  1.086 
    Occupation by irrep:
             Ap   App 
    DOCC [     4,    1 ]

   @RHF iter  17:   -76.03686624784484   -1.26001e-08   1.30918e-06 DIIS
DIIS coefficients:  -0.039  0.170  0.869 
    Occupation by irrep:
             Ap   App 
    DOCC [     4,    1 ]

   @RHF iter  18:   -76.03686624828590   -4.41062e-10   4.44452e-07 DIIS
DIIS coefficients:  -0.003  -0.034  0.191  0.845 
    Occupation by irrep:
             Ap   App 
    DOCC [     4,    1 ]

   @RHF iter  19:   -76.03686624832277   -3.68630e-11   1.42092e-07 DIIS
DIIS coefficients:  0.002  -0.008  -0.087  -0.036  1.129 
    Occupation by irrep:
             Ap   App 
    DOCC [     4,    1 ]

   @RHF iter  20:   -76.03686624832771   -4.94538e-12   3.12648e-08 DIIS
DIIS coefficients:  -0.001  0.003  0.033  0.004  -0.461  1.422 
    Occupation by irrep:
             Ap   App 
    DOCC [     4,    1 ]

   @RHF iter  21:   -76.03686624832811   -3.97904e-13   4.14111e-09 DIIS
DIIS coefficients:  0.000  -0.001  -0.007  -0.002  0.109  -0.450  1.351 
    Occupation by irrep:
             Ap   App 
    DOCC [     4,    1 ]

   @RHF iter  22:   -76.03686624832784    2.70006e-13   6.93953e-10 DIIS
DIIS coefficients:  -0.000  0.000  0.001  0.000  -0.016  0.076  -0.294  1.233 
    Occupation by irrep:
             Ap   App 
    DOCC [     4,    1 ]

   @RHF iter  23:   -76.03686624832802   -1.84741e-13   7.28674e-11 DIIS

  ==> Post-Iterations <==

    Orbital Energies (a.u.)
    -----------------------

    Doubly Occupied:                                                      

       1Ap   -20.578818     2Ap    -1.353127     3Ap    -0.711409  
       4Ap    -0.585648     1App   -0.508563  

    Virtual:                                                              

       5Ap     0.134517     6Ap     0.177885     2App    0.207916  
       7Ap     0.215023     8Ap     0.307122     9Ap     0.342970  
      10Ap     0.916351    11Ap     1.017649    12Ap     1.250939  
      13Ap     1.272464     3App    1.363673     4App    1.465780  
      14Ap     1.490700     5App    1.658274    15Ap     1.886668  
      16Ap     1.925203    17Ap     2.451266    18Ap     2.481534  
       6App    3.267273     7App    3.303741    19Ap     3.490024  
      20Ap     3.850032    21Ap     4.135197  

    Final Occupation by Irrep:
             Ap   App 
    DOCC [     4,    1 ]

  Energy converged.

  @RHF Final Energy:   -76.03686624832802

   => Energetics <=

    Nuclear Repulsion Energy =              9.1153457629173005
    One-Electron Energy =                -122.8292947979493022
    Two-Electron Energy =                  37.6770827867039060
    DFT Exchange-Correlation Energy =       0.0000000000000000
    Empirical Dispersion Energy =           0.0000000000000000
    PCM Polarization Energy =               0.0000000000000000
    EFP Energy =                            0.0000000000000000
    Total Energy =                        -76.0368662483280957

    Alert: EFP and PCM quantities not currently incorporated into SCF psivars.

Properties will be evaluated at   0.000000,   0.000000,   0.000000 Bohr
  ==> Properties <==


Properties computed using the SCF density matrix

  Nuclear Dipole Moment: (a.u.)
     X:     0.8184      Y:    -0.5771      Z:     0.0000

  Electronic Dipole Moment: (a.u.)
     X:    -0.1027      Y:     0.0719      Z:     0.0000

  Dipole Moment: (a.u.)
     X:     0.7157      Y:    -0.5052      Z:     0.0000     Total:     0.8760

  Dipole Moment: (Debye)
     X:     1.8191      Y:    -1.2841      Z:     0.0000     Total:     2.2266

  Quadrupole Moment: (Debye Ang)
    XX:    -5.4606     YY:    -4.9008     ZZ:    -7.5973
    XY:     0.8004     XZ:     0.0000     YZ:     0.0000

  Traceless Quadrupole Moment: (Debye Ang)
    XX:     0.5256     YY:     1.0854     ZZ:    -1.6110
    XY:     0.8004     XZ:     0.0000     YZ:     0.0000

  Mulliken Charges: (a.u.)
   Center  Symbol    Alpha    Beta     Spin     Total
       1     O     4.22696  4.22696  0.00000 -0.45392
       2     H     0.38668  0.38668  0.00000  0.22664
       3     H     0.38636  0.38636  0.00000  0.22728

   Total alpha =  5.00000, Total beta =  5.00000, Total charge = -0.00000



  Lowdin Charges [a.u.]:

   Center  Symbol    Alpha    Beta     Spin     Total
       1     O     4.11354  4.11354  0.00000 -0.22707
       2     H     0.44362  0.44362  0.00000  0.11275
       3     H     0.44284  0.44284  0.00000  0.11432

  Total alpha =  5.00000, Total beta =  5.00000, Total charge = -0.00000


  Mayer Bond Indices:

  Irrep: 1 Size: 3 x 3

                 1                   2                   3

    1     0.00000000000000     0.96330995968201     0.96277066603621
    2     0.96330995968201     0.00000000000000     0.00884076325225
    3     0.96277066603621     0.00884076325225     0.00000000000000



  Atomic Valences: 

 #  #
 Irrep: 1
      1:  1.9260806
      2:  0.9721507
      3:  0.9716114



  Wiberg Bond Indices using Orthogonal Lowdin Orbitals:

  Irrep: 1 Size: 3 x 3

                 1                   2                   3

    1     0.00000000000000     1.15152844580240     1.14926785891020
    2     1.15152844580240     0.00000000000000     0.05916913041119
    3     1.14926785891020     0.05916913041119     0.00000000000000



  Atomic Valences: 

 #  #
 Irrep: 1
      1:  2.3007963
      2:  1.2106976
      3:  1.2084370


  Saving occupied orbitals to File 180.
   => Loading Basis Set <=

    Role: BASIS
    Keyword: BASIS
    Name: JUN-CC-PVDZ
    atoms 1   entry O          line   225 file /home/javier/Programas/Psi4_dev/share/psi/basis/jun-cc-pvdz.gbs
    atoms 2-3 entry H          line    35 file /home/javier/Programas/Psi4_dev/share/psi/basis/jun-cc-pvdz.gbs


*** tstop() called on avila.localdomain at Wed Feb 25 10:36:34 2015
Module time:
	user time   =       0.42 seconds =       0.01 minutes
	system time =       0.02 seconds =       0.00 minutes
	total time  =          1 seconds =       0.02 minutes
Total time:
	user time   =       0.42 seconds =       0.01 minutes
	system time =       0.02 seconds =       0.00 minutes
	total time  =          1 seconds =       0.02 minutes

*** tstart() called on avila.localdomain
*** at Wed Feb 25 10:36:34 2015


	**************************************************
	* TRANSQT2: Program to transform integrals from  *
	*           the SO basis to the MO basis.        *
	*                                                *
	*            Daniel, David, & Justin             *
	**************************************************


	Input parameters:
	-----------------
	Wave function   =	CCSD
	Backtransform   =	No
	Print Level     =	3
	Print TEIs      =	No
	Reference wfn   =	RHF
	Derivative      =	First
	Delete TEI File =	Yes
	Memory (Mbytes) =	256.0
	Cache Level     =	2
	Cache Type      =	LRU

	MOs for irrep 0:

                   0                     1                     2                     3                     4        

    0      1.000910008602934     0.006611833248899     0.000007595861851     0.000840127613616     0.026874480780565
    1      0.001178480730466    -0.446972555612215     0.000560575420646     0.154248477669122    -0.059209168045200
    2     -0.002777260382092    -0.384284295770960     0.001435013895232     0.329708462972495    -0.497301081428201
    3      0.001349759577096    -0.064744300843531     0.285769719427016    -0.445880082139684    -0.134748638467964
    4     -0.000959540480147     0.046222717691074     0.406034485802776     0.314304327514316     0.094856179993963
    5     -0.000220500386749     0.003680515176135     0.131703527820773    -0.263164742978190    -0.121297189974819
    6      0.000152438566472    -0.002684181255545     0.186898154378600     0.185446910699546     0.084608570556181
    7     -0.000136446936267     0.003795618324149     0.000035875252652     0.011495154391333     0.006714123476988
    8     -0.000019894556664     0.000148636444333     0.025056495617122    -0.004352547273043    -0.000554358980638
    9      0.000046661382567    -0.000286913379403     0.008867889510444     0.012245261885913     0.001646421363103
   10      0.000631046043576    -0.069971138878900     0.000106994229069     0.063013898646857     2.285160876376957
   11     -0.000036238144180    -0.018388844626636     0.018170593847890    -0.046549618994353     0.935971987841879
   12      0.000027588299955     0.013116882002559     0.025888456336507     0.032882460814792    -0.666127128608889
   13     -0.000203811355589    -0.192651730568352    -0.326893093165472    -0.211727245622736     0.043319878640611
   14      0.000093447710540     0.034644902565857    -0.051659090147705    -0.056193585667417    -0.841847368455877
   15      0.000060728731166    -0.003602899902089     0.013599527056934    -0.025513177325460    -0.003890217166876
   16     -0.000745261509098    -0.040107726920501    -0.037299379359272    -0.026195540160629    -0.015922447022710
   17     -0.000193716723674    -0.191633936316847     0.325987651622399    -0.212731385128843     0.043759939965921
   18      0.000089931507796     0.034328127144523     0.051843045902444    -0.056784522587013    -0.833443609475558
   19      0.000716217771725     0.036486580601777    -0.039660902162451     0.016372873551567     0.013612414277504
   20      0.000189151346050     0.016741500426897     0.000442492482650     0.032734741728702     0.008881633683226

                   5                     6                     7                     8                     9        

    0     -0.000117844233335     0.034248040089174    -0.000093625350566     0.030795025404315     0.001193849785252
    1      0.000042666127186    -0.073753357290366     0.000135121349055    -0.026273701617561     0.003207859564334
    2      0.001860545416157    -0.740543215977822     0.001850049543599    -0.685741234716690    -0.005985079737249
    3      0.085323793022057     0.038439010188340     0.156678546694278    -0.190149067411643     0.187282070649721
    4      0.119931479440480    -0.027867515533616     0.217728632046371     0.137463103488499     0.260768475984216
    5      0.158626606553633     0.123945675453960     0.404250066540223    -0.564691375715874     0.088471131163944
    6      0.222914403920797    -0.088922328094443     0.560693549537577     0.408596843696025     0.130640901629875
    7     -0.000006227145731    -0.002172528767045     0.000029964244804     0.002659208543969     0.000675831133262
    8      0.015075826991861     0.000896296523357     0.004230343667258    -0.003173823194191    -0.127159265823854
    9      0.005302370047567    -0.002513795585177     0.001346942022770     0.009456869540562    -0.045315636496028
   10     -0.000214250666142    -0.129875257416136     0.043548423275374    -4.799010198237543    -0.025590662955959
   11     -0.875876840339631    -0.976310115060692     0.792410409050019    -1.072527539073952    -0.631043478309282
   12     -1.237381728089917     0.687143553103522     1.101526307207875     0.774967891256321    -0.876893174878676
   13      0.003125736786891     0.042899233916002     0.123915691853069     0.138316568396001     0.980920034467753
   14     -0.607025177324943     0.701924986312499     2.375236729218212     3.172597271586398    -2.031630694018308
   15     -0.004742702283244    -0.010144672209355     0.007289404558028    -0.002964103451923     0.093257385148657
   16     -0.005609485864699     0.004940442573444     0.024417208382810     0.038355243404789    -0.177871890548114
   17     -0.003533715736155     0.043373346916505    -0.126611777878938     0.136302319401633    -0.995088058523347
   18      0.605311965137098     0.709097065611286    -2.427738509645946     3.117069481877839     2.075100979933461
   19     -0.003615422029940    -0.008024203204686     0.021061500798768    -0.036453347100858    -0.201602249983978
   20     -0.006336750342934     0.007855213743310     0.015177742815293    -0.009651216817915     0.025826601628772

                  10                    11                    12                    13                    14        

    0      0.116565778354155     0.001989970730794     0.111509264458150     0.100881758948402     0.740918893459727
    1      0.354223482468371     0.003995997697085     0.200162700876573     0.322664523580907     1.633476022939336
    2     -0.693744252474047    -0.019653103274095    -0.984517124769851     0.131509844638759    -2.999548151139555
    3      0.211937791223453    -0.401618417039048     0.555057002642415    -0.346833508844928    -0.198116042002004
    4     -0.151368342206153    -0.585544143111805    -0.378735478564616     0.245141477516795     0.141801525860497
    5     -0.226313724413347     0.999667102771187    -0.965848490429976     1.225186451312078    -0.485637084002868
    6      0.154618319402456     1.446859796439900     0.650427029806756    -0.866589353225724     0.348965828547052
    7      0.101441257002019     0.000523884206473     0.012452152275215     0.073442918948904    -0.147001236364224
    8      0.020858316320877     0.021944108473543    -0.016248432784118    -0.033975463375577     0.008816339863619
    9     -0.054960999193506     0.008316162349657     0.045751895893615     0.096097063419359    -0.024796461384222
   10     -3.029272865629523    -0.017698933073381    -0.631695270082470     0.255474551056796     0.598058763428277
   11     -0.825817211188749    -0.158721953463215     0.130242888442816    -0.249702936921312    -0.011394116844189
   12      0.595253657221175    -0.223936203333815    -0.085355864786846     0.176607755999934     0.009100222858278
   13     -0.885299663012226     0.484568189590527     0.345891866939844    -0.630220574452136     0.783033056751655
   14      2.548143584629877     0.447234425057589     0.542171640206597     0.036052692624029     0.048074118566486
   15      0.152020740409596     0.025552195511700    -0.369923599616696    -0.552382076290599     0.154754951061967
   16      0.305088483189001     0.341502235570618     0.238275980644248    -0.102376564869670     0.277456097336047
   17     -0.868716127161980    -0.475072180069373     0.361158460703454    -0.628937610630156     0.777501447862858
   18      2.513911010531848    -0.417036745448204     0.549365525948832     0.036099498335520     0.044118354801622
   19     -0.233448068843248     0.301754594404509    -0.357450810254989    -0.087017220648104    -0.206495895075871
   20     -0.245642268514139     0.145271587246920     0.265658874666850     0.554690860506037    -0.246338873749865

                  15                    16                    17                    18                    19        

    0      0.003977509369973     0.020150264552260     0.286331173444220     0.063056070101460     0.145338153870946
    1      0.008792860974004     0.054146466088687     0.749349480684779     0.116924982171734     0.174608285842918
    2     -0.014644233693478     0.058561871691377     0.755133610309482    -0.383044341616517    -2.283301325821510
    3     -0.012230093051161     0.517198704411846     0.475531376016217     0.020707920260202    -0.304487257263338
    4     -0.013966466970239     0.649512701776152    -0.415446183289145    -0.014999651316881     0.215580039316046
    5     -0.515300890312049     0.068286352716362     0.217880362012512    -0.425478237902363    -0.895789880699181
    6     -0.723537318405566     0.059307203884673    -0.162388092672408     0.299101031525925     0.629271465360774
    7     -0.000812871341563     0.015915329705743     0.212710264885058     0.290898041038493     1.108281219782774
    8      0.035944283382027    -0.105552896483366     0.027864324488667    -0.354219075177763     0.111527656997222
    9      0.012461932870445    -0.041750780996218    -0.051187253901837     1.001034367708921    -0.331326220515061
   10      0.003806513429357     0.054990571408028     0.721631844488350    -0.200427758014011    -0.366055203968692
   11      0.059139312869125     0.202111060176061     0.141887666427518    -0.018830449556485    -0.018611803190253
   12      0.083217885163283     0.260295472091190    -0.130988168978126     0.013631480435439     0.013885408659587
   13     -0.402237191458550     0.153098739257202    -0.398828014301022     0.211232697662649     1.235252205671422
   14      0.030382006058791     0.688821048477355    -0.684592309393627     0.142325780075706     0.409205912235176
   15      0.839101247429331    -0.008374112443183     0.027548521523315     0.458704778974179    -0.011371328030883
   16     -0.034912509228320     0.856516667336831    -1.002885540764419     0.069928479731556     0.819416279382083
   17      0.409589024635285    -0.210117371231066    -0.367458942356571     0.212340898888124     1.238162497038237
   18     -0.031157274144648    -0.785218307991066    -0.571793994733017     0.141915256334125     0.409193345981371
   19     -0.314732523234079     0.945184356638691     0.819096209294902     0.085493117729054    -0.781252603425068
   20      0.776266106736341     0.321597273800991     0.261644093657577    -0.453618382168216    -0.263988124530119

                  20        

    0      0.000647902767612
    1      0.001879094446258
    2      0.013860637623618
    3     -0.249626410044472
    4     -0.358653754163177
    5     -0.648662294638355
    6     -0.928711169047210
    7     -0.005174365339315
    8     -1.249677620552132
    9     -0.440529049651665
   10      0.001835314042632
   11      0.066511961971847
   12      0.094032251452584
   13     -1.092754529668662
   14     -0.147768340586366
   15      0.069828506607560
   16     -0.766459480175034
   17      1.074640888169826
   18      0.143825708417238
   19     -0.737418588245308
   20     -0.186394905829360

	MOs for irrep 1:

                   0                     1                     2                     3                     4        

    0      0.629985132406991     0.189907492834809     0.979847166552957     0.004998253678491     0.097195684651628
    1      0.453583546313930     0.406175844585206    -1.205756043034924    -0.005448933083741    -0.794319703259859
    2      0.014281943426120     0.005606369966182    -0.006679376365702     0.077978758945752     0.134454010607760
    3     -0.010121906899821    -0.003992775318177     0.004089257426529     0.109862585660558    -0.095109926144799
    4      0.087923636425740    -1.143524656585924     0.484976062667621     0.001942772894101     0.111826669560925
    5      0.032226218093735    -0.008121678045136    -0.081296755678990    -0.685195710610765     0.759487664087369
    6      0.032136682201715    -0.008112997207999    -0.087412241982773     0.685846970120045     0.757733024106152

                   5                     6        

    0      0.027650302468046    -0.000423362236150
    1     -0.339883353710347     0.010046633772262
    2     -0.866573693191509    -0.589337214960768
    3      0.578130307676302    -0.882621034480766
    4      0.033971943393910    -0.001095191562178
    5      0.389393294131197    -0.376657344376447
    6      0.407930365694827     0.353550783401801
	Chkpt Parameters:
	--------------------
	Number of irreps     = 2
	Number of SOs        = 28
	Number of MOs        = 28
	Number of active MOs = 28

	Label	# SOs	# FZDC	# DOCC	# SOCC	# VIRT	# FZVR
	-----	-----	------	------	------	------	------
	 Ap	   21	    0	    4	    0	    17	    0
	 App	   7	    0	    1	    0	    6	    0

	Nuclear Rep. energy (chkpt) =      9.11534576291730
	SCF energy          (chkpt) =    -76.03686624832802

	Frozen-core density (SO):

           1           2           3           4           5           6           7           8           9          10

    1   0.0000000
    2   0.0000000   0.0000000
    3   0.0000000   0.0000000   0.0000000
    4   0.0000000   0.0000000   0.0000000   0.0000000
    5   0.0000000   0.0000000   0.0000000   0.0000000   0.0000000
    6   0.0000000   0.0000000   0.0000000   0.0000000   0.0000000   0.0000000
    7   0.0000000   0.0000000   0.0000000   0.0000000   0.0000000   0.0000000   0.0000000
    8   0.0000000   0.0000000   0.0000000   0.0000000   0.0000000   0.0000000   0.0000000   0.0000000
    9   0.0000000   0.0000000   0.0000000   0.0000000   0.0000000   0.0000000   0.0000000   0.0000000   0.0000000
   10   0.0000000   0.0000000   0.0000000   0.0000000   0.0000000   0.0000000   0.0000000   0.0000000   0.0000000   0.0000000
   11   0.0000000   0.0000000   0.0000000   0.0000000   0.0000000   0.0000000   0.0000000   0.0000000   0.0000000   0.0000000
   12   0.0000000   0.0000000   0.0000000   0.0000000   0.0000000   0.0000000   0.0000000   0.0000000   0.0000000   0.0000000
   13   0.0000000   0.0000000   0.0000000   0.0000000   0.0000000   0.0000000   0.0000000   0.0000000   0.0000000   0.0000000
   14   0.0000000   0.0000000   0.0000000   0.0000000   0.0000000   0.0000000   0.0000000   0.0000000   0.0000000   0.0000000
   15   0.0000000   0.0000000   0.0000000   0.0000000   0.0000000   0.0000000   0.0000000   0.0000000   0.0000000   0.0000000
   16   0.0000000   0.0000000   0.0000000   0.0000000   0.0000000   0.0000000   0.0000000   0.0000000   0.0000000   0.0000000
   17   0.0000000   0.0000000   0.0000000   0.0000000   0.0000000   0.0000000   0.0000000   0.0000000   0.0000000   0.0000000
   18   0.0000000   0.0000000   0.0000000   0.0000000   0.0000000   0.0000000   0.0000000   0.0000000   0.0000000   0.0000000
   19   0.0000000   0.0000000   0.0000000   0.0000000   0.0000000   0.0000000   0.0000000   0.0000000   0.0000000   0.0000000
   20   0.0000000   0.0000000   0.0000000   0.0000000   0.0000000   0.0000000   0.0000000   0.0000000   0.0000000   0.0000000
   21   0.0000000   0.0000000   0.0000000   0.0000000   0.0000000   0.0000000   0.0000000   0.0000000   0.0000000   0.0000000
   22   0.0000000   0.0000000   0.0000000   0.0000000   0.0000000   0.0000000   0.0000000   0.0000000   0.0000000   0.0000000
   23   0.0000000   0.0000000   0.0000000   0.0000000   0.0000000   0.0000000   0.0000000   0.0000000   0.0000000   0.0000000
   24   0.0000000   0.0000000   0.0000000   0.0000000   0.0000000   0.0000000   0.0000000   0.0000000   0.0000000   0.0000000
   25   0.0000000   0.0000000   0.0000000   0.0000000   0.0000000   0.0000000   0.0000000   0.0000000   0.0000000   0.0000000
   26   0.0000000   0.0000000   0.0000000   0.0000000   0.0000000   0.0000000   0.0000000   0.0000000   0.0000000   0.0000000
   27   0.0000000   0.0000000   0.0000000   0.0000000   0.0000000   0.0000000   0.0000000   0.0000000   0.0000000   0.0000000
   28   0.0000000   0.0000000   0.0000000   0.0000000   0.0000000   0.0000000   0.0000000   0.0000000   0.0000000   0.0000000
          11          12          13          14          15          16          17          18          19          20

   11   0.0000000
   12   0.0000000   0.0000000
   13   0.0000000   0.0000000   0.0000000
   14   0.0000000   0.0000000   0.0000000   0.0000000
   15   0.0000000   0.0000000   0.0000000   0.0000000   0.0000000
   16   0.0000000   0.0000000   0.0000000   0.0000000   0.0000000   0.0000000
   17   0.0000000   0.0000000   0.0000000   0.0000000   0.0000000   0.0000000   0.0000000
   18   0.0000000   0.0000000   0.0000000   0.0000000   0.0000000   0.0000000   0.0000000   0.0000000
   19   0.0000000   0.0000000   0.0000000   0.0000000   0.0000000   0.0000000   0.0000000   0.0000000   0.0000000
   20   0.0000000   0.0000000   0.0000000   0.0000000   0.0000000   0.0000000   0.0000000   0.0000000   0.0000000   0.0000000
   21   0.0000000   0.0000000   0.0000000   0.0000000   0.0000000   0.0000000   0.0000000   0.0000000   0.0000000   0.0000000
   22   0.0000000   0.0000000   0.0000000   0.0000000   0.0000000   0.0000000   0.0000000   0.0000000   0.0000000   0.0000000
   23   0.0000000   0.0000000   0.0000000   0.0000000   0.0000000   0.0000000   0.0000000   0.0000000   0.0000000   0.0000000
   24   0.0000000   0.0000000   0.0000000   0.0000000   0.0000000   0.0000000   0.0000000   0.0000000   0.0000000   0.0000000
   25   0.0000000   0.0000000   0.0000000   0.0000000   0.0000000   0.0000000   0.0000000   0.0000000   0.0000000   0.0000000
   26   0.0000000   0.0000000   0.0000000   0.0000000   0.0000000   0.0000000   0.0000000   0.0000000   0.0000000   0.0000000
   27   0.0000000   0.0000000   0.0000000   0.0000000   0.0000000   0.0000000   0.0000000   0.0000000   0.0000000   0.0000000
   28   0.0000000   0.0000000   0.0000000   0.0000000   0.0000000   0.0000000   0.0000000   0.0000000   0.0000000   0.0000000
          21          22          23          24          25          26          27          28

   21   0.0000000
   22   0.0000000   0.0000000
   23   0.0000000   0.0000000   0.0000000
   24   0.0000000   0.0000000   0.0000000   0.0000000
   25   0.0000000   0.0000000   0.0000000   0.0000000   0.0000000
   26   0.0000000   0.0000000   0.0000000   0.0000000   0.0000000   0.0000000
   27   0.0000000   0.0000000   0.0000000   0.0000000   0.0000000   0.0000000   0.0000000
   28   0.0000000   0.0000000   0.0000000   0.0000000   0.0000000   0.0000000   0.0000000   0.0000000

	Presorting SO-basis two-electron integrals.
	Sorting File: SO Ints (pq,rs) nbuckets = 1
	Frozen-core energy =    0.000000000000000

	One-electron integrals (MO basis):

           1           2           3           4           5           6           7           8           9          10

    1 -33.0181366
    2  -0.5822835  -7.8516054
    3   0.0007102  -0.0002819  -6.6859975
    4   0.1867723   0.2401445  -0.0020283  -6.8542621
    5   0.0000000   0.0000000   0.0000000   0.0000000  -7.0046458
    6  -0.1184296  -0.7166454   0.0007967  -0.5876568   0.0000000  -2.7418035
    7   0.0002832   0.0010924  -0.7604536   0.0029361   0.0000000   0.0022757  -2.2756531
    8  -0.1512939  -0.6081274   0.0037799   0.5771652   0.0000000  -0.3998516   0.0017551  -2.5601149
    9   0.0003263   0.0021619  -1.0354480   0.0113209   0.0000000   0.0063519  -0.5060339   0.0015522  -3.1859439
   10  -0.0859027  -0.5207244  -0.0106647  -0.8609881   0.0000000  -0.7041312  -0.0032206  -0.0877673  -0.0017610  -2.9574125
   11   0.0013383   0.0048586  -0.6708108   0.0048942   0.0000000   0.0061041  -0.1600815   0.0054534  -1.3222504  -0.0027745
   12   0.1738826   0.6718501   0.0032439   0.4300610   0.0000000   0.4716629  -0.0021010   0.3625572  -0.0003789   1.1316496
   13   0.0006143   0.0074769   1.3942390   0.0168027   0.0000000   0.0113017   0.8542196  -0.0054430   0.6940905   0.0186112
   14   0.0098002   0.3058254  -0.0187980   1.2483117   0.0000000   0.6993616  -0.0145356  -0.3444540  -0.0156587   0.6416518
   15   0.1635874   0.3449816  -0.0018942  -0.8851218   0.0000000  -0.1061632   0.0002127   0.4927626   0.0033175  -0.1906727
   16   0.4011024   1.0966011  -0.0033759  -0.7016777   0.0000000   0.4948676  -0.0014622   0.6884697   0.0029198  -0.1459395
   17   0.0021765   0.0057329   0.0322987  -0.0044578   0.0000000   0.0021885  -0.0052901   0.0036243   0.0822380  -0.0001801
   18   0.0199982   0.0450295  -0.5417448   0.0240452   0.0000000   0.0310020  -0.2238233   0.0198681  -0.5836086   0.0430962
   19   0.2635287   0.5975172   0.0417063   0.2987044   0.0000000   0.3955484   0.0159201   0.2452717   0.0393217   0.6233219
   20   0.0099334   0.0251414   0.0002227  -0.0686081   0.0000000  -0.0104625   0.0000979   0.0155056   0.0005319  -0.0291044
   21  -0.0563382  -0.1675829   0.0001842  -0.2798768   0.0000000  -0.1003849   0.0002347  -0.0018704   0.0006399  -0.0956696
   22   0.0006828   0.0021637   0.4237122   0.0012733   0.0000000   0.0007608   0.0764186  -0.0000017   0.1239808   0.0023089
   23   0.0000000   0.0000000   0.0000000   0.0000000  -1.0669107   0.0000000   0.0000000   0.0000000   0.0000000   0.0000000
   24   0.0000000   0.0000000   0.0000000   0.0000000  -1.9066277   0.0000000   0.0000000   0.0000000   0.0000000   0.0000000
   25   0.0000000   0.0000000   0.0000000   0.0000000  -0.0089063   0.0000000   0.0000000   0.0000000   0.0000000   0.0000000
   26   0.0000000   0.0000000   0.0000000   0.0000000  -0.1729597   0.0000000   0.0000000   0.0000000   0.0000000   0.0000000
   27   0.0000000   0.0000000   0.0000000   0.0000000   0.0621069   0.0000000   0.0000000   0.0000000   0.0000000   0.0000000
   28   0.0000000   0.0000000   0.0000000   0.0000000  -0.0020895   0.0000000   0.0000000   0.0000000   0.0000000   0.0000000
          11          12          13          14          15          16          17          18          19          20

   11  -3.7254092
   12   0.0026827  -3.5151037
   13   0.4411469  -0.0058048  -4.2456906
   14  -0.0091287  -0.2567873  -0.0011783  -4.3535660
   15   0.0021569   0.1438813   0.0050045   0.3261308  -3.5907072
   16  -0.0022481  -0.0081364   0.0052972   0.2482561  -0.3862653  -4.0997643
   17   0.0913778  -0.0013567  -0.1311312   0.0057866  -0.0009812  -0.0081155  -2.6214013
   18  -1.3250941  -0.0856351   0.9750054  -0.0714818   0.0031251  -0.0108377   0.1574547  -3.4697150
   19   0.0920555  -1.2399260  -0.0882259  -0.7449173   0.0303591  -0.1174179  -0.0127267  -0.0041329  -3.5360394
   20   0.0016842   0.2761575  -0.0074318  -0.4766243  -0.8303993   0.2426284   0.0029968  -0.0010840  -0.0111291  -3.3973176
   21   0.0014741   0.2806924   0.0103829   0.8712985  -0.3556394   0.5284044   0.0026447  -0.0457224  -0.5381021   0.0695530
   22  -0.0232972   0.0002873  -1.1517821   0.0130830   0.0026456  -0.0030964   0.1611576  -0.4616872   0.0359417  -0.0003693
   23   0.0000000   0.0000000   0.0000000   0.0000000   0.0000000   0.0000000   0.0000000   0.0000000   0.0000000   0.0000000
   24   0.0000000   0.0000000   0.0000000   0.0000000   0.0000000   0.0000000   0.0000000   0.0000000   0.0000000   0.0000000
   25   0.0000000   0.0000000   0.0000000   0.0000000   0.0000000   0.0000000   0.0000000   0.0000000   0.0000000   0.0000000
   26   0.0000000   0.0000000   0.0000000   0.0000000   0.0000000   0.0000000   0.0000000   0.0000000   0.0000000   0.0000000
   27   0.0000000   0.0000000   0.0000000   0.0000000   0.0000000   0.0000000   0.0000000   0.0000000   0.0000000   0.0000000
   28   0.0000000   0.0000000   0.0000000   0.0000000   0.0000000   0.0000000   0.0000000   0.0000000   0.0000000   0.0000000
          21          22          23          24          25          26          27          28

   21  -2.9496675
   22   0.0002892  -2.8437681
   23   0.0000000   0.0000000  -2.4634830
   24   0.0000000   0.0000000  -1.0905885  -5.0346356
   25   0.0000000   0.0000000  -0.0048583  -0.0084169  -3.3821904
   26   0.0000000   0.0000000  -0.0750792  -0.0081490   0.0021159  -3.1352433
   27   0.0000000   0.0000000   0.0151178  -0.0715952   0.0241746   0.8985108  -3.6518302
   28   0.0000000   0.0000000  -0.0005189  -0.0024926   0.8767878  -0.0257733  -0.0013550  -3.6534243

	Frozen-core operator (MO basis):

           1           2           3           4           5           6           7           8           9          10

    1 -33.0181366
    2  -0.5822835  -7.8516054
    3   0.0007102  -0.0002819  -6.6859975
    4   0.1867723   0.2401445  -0.0020283  -6.8542621
    5   0.0000000   0.0000000   0.0000000   0.0000000  -7.0046458
    6  -0.1184296  -0.7166454   0.0007967  -0.5876568   0.0000000  -2.7418035
    7   0.0002832   0.0010924  -0.7604536   0.0029361   0.0000000   0.0022757  -2.2756531
    8  -0.1512939  -0.6081274   0.0037799   0.5771652   0.0000000  -0.3998516   0.0017551  -2.5601149
    9   0.0003263   0.0021619  -1.0354480   0.0113209   0.0000000   0.0063519  -0.5060339   0.0015522  -3.1859439
   10  -0.0859027  -0.5207244  -0.0106647  -0.8609881   0.0000000  -0.7041312  -0.0032206  -0.0877673  -0.0017610  -2.9574125
   11   0.0013383   0.0048586  -0.6708108   0.0048942   0.0000000   0.0061041  -0.1600815   0.0054534  -1.3222504  -0.0027745
   12   0.1738826   0.6718501   0.0032439   0.4300610   0.0000000   0.4716629  -0.0021010   0.3625572  -0.0003789   1.1316496
   13   0.0006143   0.0074769   1.3942390   0.0168027   0.0000000   0.0113017   0.8542196  -0.0054430   0.6940905   0.0186112
   14   0.0098002   0.3058254  -0.0187980   1.2483117   0.0000000   0.6993616  -0.0145356  -0.3444540  -0.0156587   0.6416518
   15   0.1635874   0.3449816  -0.0018942  -0.8851218   0.0000000  -0.1061632   0.0002127   0.4927626   0.0033175  -0.1906727
   16   0.4011024   1.0966011  -0.0033759  -0.7016777   0.0000000   0.4948676  -0.0014622   0.6884697   0.0029198  -0.1459395
   17   0.0021765   0.0057329   0.0322987  -0.0044578   0.0000000   0.0021885  -0.0052901   0.0036243   0.0822380  -0.0001801
   18   0.0199982   0.0450295  -0.5417448   0.0240452   0.0000000   0.0310020  -0.2238233   0.0198681  -0.5836086   0.0430962
   19   0.2635287   0.5975172   0.0417063   0.2987044   0.0000000   0.3955484   0.0159201   0.2452717   0.0393217   0.6233219
   20   0.0099334   0.0251414   0.0002227  -0.0686081   0.0000000  -0.0104625   0.0000979   0.0155056   0.0005319  -0.0291044
   21  -0.0563382  -0.1675829   0.0001842  -0.2798768   0.0000000  -0.1003849   0.0002347  -0.0018704   0.0006399  -0.0956696
   22   0.0006828   0.0021637   0.4237122   0.0012733   0.0000000   0.0007608   0.0764186  -0.0000017   0.1239808   0.0023089
   23   0.0000000   0.0000000   0.0000000   0.0000000  -1.0669107   0.0000000   0.0000000   0.0000000   0.0000000   0.0000000
   24   0.0000000   0.0000000   0.0000000   0.0000000  -1.9066277   0.0000000   0.0000000   0.0000000   0.0000000   0.0000000
   25   0.0000000   0.0000000   0.0000000   0.0000000  -0.0089063   0.0000000   0.0000000   0.0000000   0.0000000   0.0000000
   26   0.0000000   0.0000000   0.0000000   0.0000000  -0.1729597   0.0000000   0.0000000   0.0000000   0.0000000   0.0000000
   27   0.0000000   0.0000000   0.0000000   0.0000000   0.0621069   0.0000000   0.0000000   0.0000000   0.0000000   0.0000000
   28   0.0000000   0.0000000   0.0000000   0.0000000  -0.0020895   0.0000000   0.0000000   0.0000000   0.0000000   0.0000000
          11          12          13          14          15          16          17          18          19          20

   11  -3.7254092
   12   0.0026827  -3.5151037
   13   0.4411469  -0.0058048  -4.2456906
   14  -0.0091287  -0.2567873  -0.0011783  -4.3535660
   15   0.0021569   0.1438813   0.0050045   0.3261308  -3.5907072
   16  -0.0022481  -0.0081364   0.0052972   0.2482561  -0.3862653  -4.0997643
   17   0.0913778  -0.0013567  -0.1311312   0.0057866  -0.0009812  -0.0081155  -2.6214013
   18  -1.3250941  -0.0856351   0.9750054  -0.0714818   0.0031251  -0.0108377   0.1574547  -3.4697150
   19   0.0920555  -1.2399260  -0.0882259  -0.7449173   0.0303591  -0.1174179  -0.0127267  -0.0041329  -3.5360394
   20   0.0016842   0.2761575  -0.0074318  -0.4766243  -0.8303993   0.2426284   0.0029968  -0.0010840  -0.0111291  -3.3973176
   21   0.0014741   0.2806924   0.0103829   0.8712985  -0.3556394   0.5284044   0.0026447  -0.0457224  -0.5381021   0.0695530
   22  -0.0232972   0.0002873  -1.1517821   0.0130830   0.0026456  -0.0030964   0.1611576  -0.4616872   0.0359417  -0.0003693
   23   0.0000000   0.0000000   0.0000000   0.0000000   0.0000000   0.0000000   0.0000000   0.0000000   0.0000000   0.0000000
   24   0.0000000   0.0000000   0.0000000   0.0000000   0.0000000   0.0000000   0.0000000   0.0000000   0.0000000   0.0000000
   25   0.0000000   0.0000000   0.0000000   0.0000000   0.0000000   0.0000000   0.0000000   0.0000000   0.0000000   0.0000000
   26   0.0000000   0.0000000   0.0000000   0.0000000   0.0000000   0.0000000   0.0000000   0.0000000   0.0000000   0.0000000
   27   0.0000000   0.0000000   0.0000000   0.0000000   0.0000000   0.0000000   0.0000000   0.0000000   0.0000000   0.0000000
   28   0.0000000   0.0000000   0.0000000   0.0000000   0.0000000   0.0000000   0.0000000   0.0000000   0.0000000   0.0000000
          21          22          23          24          25          26          27          28

   21  -2.9496675
   22   0.0002892  -2.8437681
   23   0.0000000   0.0000000  -2.4634830
   24   0.0000000   0.0000000  -1.0905885  -5.0346356
   25   0.0000000   0.0000000  -0.0048583  -0.0084169  -3.3821904
   26   0.0000000   0.0000000  -0.0750792  -0.0081490   0.0021159  -3.1352433
   27   0.0000000   0.0000000   0.0151178  -0.0715952   0.0241746   0.8985108  -3.6518302
   28   0.0000000   0.0000000  -0.0005189  -0.0024926   0.8767878  -0.0257733  -0.0013550  -3.6534243
	Starting first half-transformation.
	h = 0; memfree         = 31999020
	h = 0; rows_per_bucket = 259
	h = 0; rows_left       = 0
	h = 0; nbuckets        = 1
	h = 1; memfree         = 31999412
	h = 1; rows_per_bucket = 147
	h = 1; rows_left       = 0
	h = 1; nbuckets        = 1
	Sorting half-transformed integrals.
	Starting second half-transformation.
	h = 0; memfree         = 31999020
	h = 0; rows_per_bucket = 259
	h = 0; rows_left       = 0
	h = 0; nbuckets        = 1
	h = 1; memfree         = 31999412
	h = 1; rows_per_bucket = 147
	h = 1; rows_left       = 0
	h = 1; nbuckets        = 1
	Two-electron integral transformation complete.

*** tstop() called on avila.localdomain at Wed Feb 25 10:36:34 2015
Module time:
	user time   =       0.03 seconds =       0.00 minutes
	system time =       0.01 seconds =       0.00 minutes
	total time  =          0 seconds =       0.00 minutes
Total time:
	user time   =       0.46 seconds =       0.01 minutes
	system time =       0.03 seconds =       0.00 minutes
	total time  =          1 seconds =       0.02 minutes

*** tstart() called on avila.localdomain
*** at Wed Feb 25 10:36:34 2015


			**************************
			*                        *
			*         CCSORT         *
			*                        *
			**************************


	Input parameters:
	-----------------
	Wave function   =	CCSD
	Reference wfn   =	RHF
	Derivative      =	First
	Memory (Mbytes) =	256.0
	AO Basis        =	NONE
	Make (ab|cd)    =	True
	Make unpacked (ab|cd) =	True
	Cache Level     =	2
	Cache Type      =	LRU
	Local CC        =     No


	Chkpt Parameters:
	--------------------
	Number of irreps     = 2
	Number of MOs        = 28
	Number of active MOs = 28

	Label	# MOs	# FZDC	# DOCC	# SOCC	# VIRT	# FZVR
	-----	-----	------	------	------	------	------
	 Ap	   21	    0	    4	    0	    17	    0
	 App	   7	    0	    1	    0	    6	    0

	Nuclear Rep. energy (chkpt) =      9.11534576291730
	SCF energy          (chkpt) =    -76.03686624832802

	Size of irrep 0 of <ab|cd> integrals:      0.106 (MW) /      0.845 (MB)
	Size of irrep 1 of <ab|cd> integrals:      0.042 (MW) /      0.333 (MB)
	Total:                                     0.147 (MW) /      1.178 (MB)

	Size of irrep 0 of <ia|bc> integrals:      0.024 (MW) /      0.192 (MB)
	Size of irrep 1 of <ia|bc> integrals:      0.008 (MW) /      0.067 (MB)
	Total:                                     0.032 (MW) /      0.259 (MB)

	Size of irrep 0 of tijab amplitudes:       0.006 (MW) /      0.044 (MB)
	Size of irrep 1 of tijab amplitudes:       0.002 (MW) /      0.013 (MB)
	Total:                                     0.007 (MW) /      0.057 (MB)


	Sorting File: A <ij|kl> nbuckets = 1
	Sorting File: B <ab|cd> nbuckets = 1
	Sorting File: B(+) <ab|cd> nbuckets = 1
	Sorting File: C <ia|jb> nbuckets = 1
	Sorting File: D <ij|ab> nbuckets = 1
	Sorting File: E <ai|jk> nbuckets = 1
	Sorting File: F <ia|bc> nbuckets = 1
	Sorting File: F <ai|bc> nbuckets = 1
	Nuclear energy               =      9.11534576291730
	One-electron energy          =   -122.82929479955082
	Two-electron (AA) energy     =     14.37357969951831
	Two-electron (BB) energy     =     14.37357969951831
	Two-electron (AB) energy     =     23.30350308878711
	Two-electron energy          =     37.67708278830542
	Frozen-core energy (transqt) =      0.00000000000000
	Reference energy             =    -76.03686624832811

*** tstop() called on avila.localdomain at Wed Feb 25 10:36:34 2015
Module time:
	user time   =       0.04 seconds =       0.00 minutes
	system time =       0.02 seconds =       0.00 minutes
	total time  =          0 seconds =       0.00 minutes
Total time:
	user time   =       0.50 seconds =       0.01 minutes
	system time =       0.05 seconds =       0.00 minutes
	total time  =          1 seconds =       0.02 minutes
   => Loading Basis Set <=

    Role: BASIS
    Keyword: BASIS
    Name: JUN-CC-PVDZ
    atoms 1   entry O          line   225 file /home/javier/Programas/Psi4_dev/share/psi/basis/jun-cc-pvdz.gbs
    atoms 2-3 entry H          line    35 file /home/javier/Programas/Psi4_dev/share/psi/basis/jun-cc-pvdz.gbs


*** tstart() called on avila.localdomain
*** at Wed Feb 25 10:36:34 2015

			**************************
			*                        *
			*        CCENERGY        *
			*                        *
			**************************

	Nuclear Rep. energy (chkpt)   =    9.115345762917300
	SCF energy          (chkpt)   =  -76.036866248328025
	Reference energy    (file100) =  -76.036866248328110

	Input parameters:
	-----------------
	Wave function   =     CCSD
	Reference wfn   =     RHF
	Brueckner       =     No
	Memory (Mbytes) =     256.0
	Maxiter         =     50
	R_Convergence   =     1.0e-07
	E_Convergence   =     1.0e-08
	Restart         =     Yes
	DIIS            =     Yes
	AO Basis        =     NONE
	ABCD            =     NEW
	Cache Level     =     2
	Cache Type      =     LOW
	Print Level     =     3
	Num. of threads =     1
	# Amps to Print =     10
	Print MP2 Amps? =     No
	Analyze T2 Amps =     No
	Print Pair Ener =     No
	Local CC        =     No
	SCS-MP2         =     False
	SCSN-MP2        =     False
	SCS-CCSD        =     False

	            Solving CC Amplitude Equations
	            ------------------------------
  Iter             Energy              RMS        T1Diag      D1Diag    New D1Diag    D2Diag
  ----     ---------------------    ---------   ----------  ----------  ----------   --------
     0        -0.211114564062340    0.000e+00    0.000000    0.000000    0.000000    0.112134
     F intermediates...complete
     T1 amplitudes  ...complete
     Wmbej          ...complete
     Z              ...complete
     Wmnij          ...complete
     <ij||ab> -> T2 ...complete
     F -> T2        ...complete
     Wmnij -> T2    ...complete
     <ab||cd> -> T2 ...complete
     Z -> T2        ...complete
     <ia||bc> -> T2 ...complete
     <ij||ka> -> T2 ...complete
     Wmbej -> T2    ...complete
     <ia||jb> -> T2 ...complete
     T2 amplitudes  ...complete
     1        -0.213686566577970    3.564e-02    0.008126    0.018462    0.018462    0.117744
     F intermediates...complete
     T1 amplitudes  ...complete
     Wmbej          ...complete
     Z              ...complete
     Wmnij          ...complete
     <ij||ab> -> T2 ...complete
     F -> T2        ...complete
     Wmnij -> T2    ...complete
     <ab||cd> -> T2 ...complete
     Z -> T2        ...complete
     <ia||bc> -> T2 ...complete
     <ij||ka> -> T2 ...complete
     Wmbej -> T2    ...complete
     <ia||jb> -> T2 ...complete
     T2 amplitudes  ...complete
     2        -0.217832698409259    1.216e-02    0.008435    0.019017    0.019017    0.122610
     F intermediates...complete
     T1 amplitudes  ...complete
     Wmbej          ...complete
     Z              ...complete
     Wmnij          ...complete
     <ij||ab> -> T2 ...complete
     F -> T2        ...complete
     Wmnij -> T2    ...complete
     <ab||cd> -> T2 ...complete
     Z -> T2        ...complete
     <ia||bc> -> T2 ...complete
     <ij||ka> -> T2 ...complete
     Wmbej -> T2    ...complete
     <ia||jb> -> T2 ...complete
     T2 amplitudes  ...complete
     3        -0.219094875054398    5.093e-03    0.009859    0.022779    0.022779    0.124957
     F intermediates...complete
     T1 amplitudes  ...complete
     Wmbej          ...complete
     Z              ...complete
     Wmnij          ...complete
     <ij||ab> -> T2 ...complete
     F -> T2        ...complete
     Wmnij -> T2    ...complete
     <ab||cd> -> T2 ...complete
     Z -> T2        ...complete
     <ia||bc> -> T2 ...complete
     <ij||ka> -> T2 ...complete
     Wmbej -> T2    ...complete
     <ia||jb> -> T2 ...complete
     T2 amplitudes  ...complete
     4        -0.219018858560296    8.976e-04    0.010011    0.023273    0.023273    0.125104
     F intermediates...complete
     T1 amplitudes  ...complete
     Wmbej          ...complete
     Z              ...complete
     Wmnij          ...complete
     <ij||ab> -> T2 ...complete
     F -> T2        ...complete
     Wmnij -> T2    ...complete
     <ab||cd> -> T2 ...complete
     Z -> T2        ...complete
     <ia||bc> -> T2 ...complete
     <ij||ka> -> T2 ...complete
     Wmbej -> T2    ...complete
     <ia||jb> -> T2 ...complete
     T2 amplitudes  ...complete
     5        -0.219032005955898    2.811e-04    0.010073    0.023520    0.023520    0.125143
     F intermediates...complete
     T1 amplitudes  ...complete
     Wmbej          ...complete
     Z              ...complete
     Wmnij          ...complete
     <ij||ab> -> T2 ...complete
     F -> T2        ...complete
     Wmnij -> T2    ...complete
     <ab||cd> -> T2 ...complete
     Z -> T2        ...complete
     <ia||bc> -> T2 ...complete
     <ij||ka> -> T2 ...complete
     Wmbej -> T2    ...complete
     <ia||jb> -> T2 ...complete
     T2 amplitudes  ...complete
     6        -0.219032573091508    6.616e-05    0.010086    0.023580    0.023580    0.125134
     F intermediates...complete
     T1 amplitudes  ...complete
     Wmbej          ...complete
     Z              ...complete
     Wmnij          ...complete
     <ij||ab> -> T2 ...complete
     F -> T2        ...complete
     Wmnij -> T2    ...complete
     <ab||cd> -> T2 ...complete
     Z -> T2        ...complete
     <ia||bc> -> T2 ...complete
     <ij||ka> -> T2 ...complete
     Wmbej -> T2    ...complete
     <ia||jb> -> T2 ...complete
     T2 amplitudes  ...complete
     7        -0.219031285961594    1.803e-05    0.010088    0.023592    0.023592    0.125129
     F intermediates...complete
     T1 amplitudes  ...complete
     Wmbej          ...complete
     Z              ...complete
     Wmnij          ...complete
     <ij||ab> -> T2 ...complete
     F -> T2        ...complete
     Wmnij -> T2    ...complete
     <ab||cd> -> T2 ...complete
     Z -> T2        ...complete
     <ia||bc> -> T2 ...complete
     <ij||ka> -> T2 ...complete
     Wmbej -> T2    ...complete
     <ia||jb> -> T2 ...complete
     T2 amplitudes  ...complete
     8        -0.219031271041217    4.955e-06    0.010089    0.023597    0.023597    0.125128
     F intermediates...complete
     T1 amplitudes  ...complete
     Wmbej          ...complete
     Z              ...complete
     Wmnij          ...complete
     <ij||ab> -> T2 ...complete
     F -> T2        ...complete
     Wmnij -> T2    ...complete
     <ab||cd> -> T2 ...complete
     Z -> T2        ...complete
     <ia||bc> -> T2 ...complete
     <ij||ka> -> T2 ...complete
     Wmbej -> T2    ...complete
     <ia||jb> -> T2 ...complete
     T2 amplitudes  ...complete
     9        -0.219031194613251    1.039e-06    0.010089    0.023598    0.023598    0.125128
     F intermediates...complete
     T1 amplitudes  ...complete
     Wmbej          ...complete
     Z              ...complete
     Wmnij          ...complete
     <ij||ab> -> T2 ...complete
     F -> T2        ...complete
     Wmnij -> T2    ...complete
     <ab||cd> -> T2 ...complete
     Z -> T2        ...complete
     <ia||bc> -> T2 ...complete
     <ij||ka> -> T2 ...complete
     Wmbej -> T2    ...complete
     <ia||jb> -> T2 ...complete
     T2 amplitudes  ...complete
    10        -0.219031184591772    3.159e-07    0.010089    0.023598    0.023598    0.125128
     F intermediates...complete
     T1 amplitudes  ...complete
     Wmbej          ...complete
     Z              ...complete
     Wmnij          ...complete
     <ij||ab> -> T2 ...complete
     F -> T2        ...complete
     Wmnij -> T2    ...complete
     <ab||cd> -> T2 ...complete
     Z -> T2        ...complete
     <ia||bc> -> T2 ...complete
     <ij||ka> -> T2 ...complete
     Wmbej -> T2    ...complete
     <ia||jb> -> T2 ...complete
     T2 amplitudes  ...complete
    11        -0.219031188954498    1.090e-07    0.010089    0.023598    0.023598    0.125128
     F intermediates...complete
     T1 amplitudes  ...complete
     Wmbej          ...complete
     Z              ...complete
     Wmnij          ...complete
     <ij||ab> -> T2 ...complete
     F -> T2        ...complete
     Wmnij -> T2    ...complete
     <ab||cd> -> T2 ...complete
     Z -> T2        ...complete
     <ia||bc> -> T2 ...complete
     <ij||ka> -> T2 ...complete
     Wmbej -> T2    ...complete
     <ia||jb> -> T2 ...complete
     T2 amplitudes  ...complete
    12        -0.219031191510873    3.592e-08    0.010089    0.023598    0.023598    0.125128

	Iterations converged.


	Largest TIA Amplitudes:
	          4  17        -0.0233583835
	          3   4        -0.0093815270
	          3   2         0.0089210408
	          3   0        -0.0078087698
	          2  12         0.0075872651
	          1   2        -0.0060901563
	          2   3        -0.0055608793
	          2   7        -0.0051081902
	          3  13        -0.0051028886
	          3   9         0.0041032237

	Largest TIjAb Amplitudes:
	  4   4  18  18        -0.0406230720
	  2   2   5   5        -0.0300087865
	  2   2   3   3        -0.0284891544
	  4   4  17  18        -0.0243110688
	  4   4  18  17        -0.0243110688
	  2   2   3   5        -0.0239421046
	  2   2   5   3        -0.0239421046
	  3   3   8   8        -0.0239231787
	  4   4  17  17        -0.0232827045
	  2   2   6   6        -0.0219129878

	SCF energy       (chkpt)              =  -76.036866248328025
	Reference energy (file100)            =  -76.036866248328110

	Opposite-spin MP2 correlation energy  =   -0.157357113192153
	Same-spin MP2 correlation energy      =   -0.053757450870187
	MP2 correlation energy                =   -0.211114564062340
      * MP2 total energy                      =  -76.247980812390452

	Opposite-spin CCSD correlation energy =   -0.171728279355862
	Same-spin CCSD correlation energy     =   -0.047302912165515
	CCSD correlation energy               =   -0.219031191510873
      * CCSD total energy                     =  -76.255897439838989


*** tstop() called on avila.localdomain at Wed Feb 25 10:36:34 2015
Module time:
	user time   =       0.21 seconds =       0.00 minutes
	system time =       0.15 seconds =       0.00 minutes
	total time  =          0 seconds =       0.00 minutes
Total time:
	user time   =       0.74 seconds =       0.01 minutes
	system time =       0.20 seconds =       0.00 minutes
	total time  =          1 seconds =       0.02 minutes

*** tstart() called on avila.localdomain
*** at Wed Feb 25 10:36:34 2015


			**************************
			*                        *
			*         CCHBAR         *
			*                        *
			**************************

     F elements     ...complete
     Wamef elements ...complete
     Wmnie elements ...complete
	F -> Wabei...done.
	FME*T2 -> Wabei...done.
	B*T1 -> Wabei...done.
	D*T1*T2 + E*T2 -> Wabei...done.
	(T2+T1*T1) * F -> Wabei...done.
	T1*(C+D*T2) -> Wabei...done.
     Wabei elements ...complete
     Wmbej elements ...complete
     Wmbij elements ...complete

*** tstop() called on avila.localdomain at Wed Feb 25 10:36:35 2015
Module time:
	user time   =       0.03 seconds =       0.00 minutes
	system time =       0.02 seconds =       0.00 minutes
	total time  =          1 seconds =       0.02 minutes
Total time:
	user time   =       0.77 seconds =       0.01 minutes
	system time =       0.22 seconds =       0.00 minutes
	total time  =          2 seconds =       0.03 minutes
   => Loading Basis Set <=

    Role: BASIS
    Keyword: BASIS
    Name: JUN-CC-PVDZ
    atoms 1   entry O          line   225 file /home/javier/Programas/Psi4_dev/share/psi/basis/jun-cc-pvdz.gbs
    atoms 2-3 entry H          line    35 file /home/javier/Programas/Psi4_dev/share/psi/basis/jun-cc-pvdz.gbs


*** tstart() called on avila.localdomain
*** at Wed Feb 25 10:36:35 2015


			**************************
			*        CCLAMBDA        *
			**************************


	Nuclear Rep. energy (chkpt)   =    9.115345762917300
	Reference           (chkpt)   = 0
	SCF energy          (chkpt)   =  -76.255897439838989
	Reference energy    (CC_INFO) =  -76.036866248328110
	CCSD energy         (CC_INFO) =   -0.219031191510873
	Total CCSD energy   (CC_INFO) =  -76.255897439838989

	Input parameters:
	-----------------
	Maxiter       =      50
	Convergence   = 1.0e-07
	Restart       =     No
	Cache Level   =     2
	Model III     =     No
	DIIS          =     Yes
	AO Basis      =     No
	ABCD            =     NEW
	Local CC        =     No
	Paramaters for left-handed eigenvectors:
	    Irr   Root  Ground-State?    EOM energy        R0
	  1   0     0        Yes       0.0000000000   1.0000000000
	Labels for eigenvector 1:
	LIA 0 -1, Lia 0 -1, LIJAB 0 -1, Lijab 0 -1, LIjAb 0 -1, 2LIjAb - LIjbA 0 -1
	Symmetry of left-hand state: Ap
	Symmetry of left-hand eigenvector: Ap

	          Solving Lambda Equations
	          ------------------------
	Iter     PseudoEnergy or Norm         RMS  
	----     ---------------------     --------
	   0        -0.219089346024672    0.000e+00
     L1 amplitudes  ...complete
     <ij||ab> -> L2 ...complete
     Wmnij -> L2    ...complete
     Wabef -> L2    ...complete
     Wamef -> L2    ...complete
     Wmnie -> L2    ...complete
     G -> L2        ...complete
     F -> L2        ...complete
     Wmbej -> L2    ...complete
     L1*F -> L2     ...complete
     L2 amplitudes  ...complete
	   1        -0.216254623175504    1.276e-02
     L1 amplitudes  ...complete
     <ij||ab> -> L2 ...complete
     Wmnij -> L2    ...complete
     Wabef -> L2    ...complete
     Wamef -> L2    ...complete
     Wmnie -> L2    ...complete
     G -> L2        ...complete
     F -> L2        ...complete
     Wmbej -> L2    ...complete
     L1*F -> L2     ...complete
     L2 amplitudes  ...complete
	   2        -0.215661286250569    2.519e-03
     L1 amplitudes  ...complete
     <ij||ab> -> L2 ...complete
     Wmnij -> L2    ...complete
     Wabef -> L2    ...complete
     Wamef -> L2    ...complete
     Wmnie -> L2    ...complete
     G -> L2        ...complete
     F -> L2        ...complete
     Wmbej -> L2    ...complete
     L1*F -> L2     ...complete
     L2 amplitudes  ...complete
	   3        -0.215516608018727    1.483e-03
     L1 amplitudes  ...complete
     <ij||ab> -> L2 ...complete
     Wmnij -> L2    ...complete
     Wabef -> L2    ...complete
     Wamef -> L2    ...complete
     Wmnie -> L2    ...complete
     G -> L2        ...complete
     F -> L2        ...complete
     Wmbej -> L2    ...complete
     L1*F -> L2     ...complete
     L2 amplitudes  ...complete
	   4        -0.215507617484793    3.261e-04
     L1 amplitudes  ...complete
     <ij||ab> -> L2 ...complete
     Wmnij -> L2    ...complete
     Wabef -> L2    ...complete
     Wamef -> L2    ...complete
     Wmnie -> L2    ...complete
     G -> L2        ...complete
     F -> L2        ...complete
     Wmbej -> L2    ...complete
     L1*F -> L2     ...complete
     L2 amplitudes  ...complete
	   5        -0.215515452267548    8.244e-05
     L1 amplitudes  ...complete
     <ij||ab> -> L2 ...complete
     Wmnij -> L2    ...complete
     Wabef -> L2    ...complete
     Wamef -> L2    ...complete
     Wmnie -> L2    ...complete
     G -> L2        ...complete
     F -> L2        ...complete
     Wmbej -> L2    ...complete
     L1*F -> L2     ...complete
     L2 amplitudes  ...complete
	   6        -0.215515320802225    2.274e-05
     L1 amplitudes  ...complete
     <ij||ab> -> L2 ...complete
     Wmnij -> L2    ...complete
     Wabef -> L2    ...complete
     Wamef -> L2    ...complete
     Wmnie -> L2    ...complete
     G -> L2        ...complete
     F -> L2        ...complete
     Wmbej -> L2    ...complete
     L1*F -> L2     ...complete
     L2 amplitudes  ...complete
	   7        -0.215514930400665    5.299e-06
     L1 amplitudes  ...complete
     <ij||ab> -> L2 ...complete
     Wmnij -> L2    ...complete
     Wabef -> L2    ...complete
     Wamef -> L2    ...complete
     Wmnie -> L2    ...complete
     G -> L2        ...complete
     F -> L2        ...complete
     Wmbej -> L2    ...complete
     L1*F -> L2     ...complete
     L2 amplitudes  ...complete
	   8        -0.215514977176869    1.485e-06
     L1 amplitudes  ...complete
     <ij||ab> -> L2 ...complete
     Wmnij -> L2    ...complete
     Wabef -> L2    ...complete
     Wamef -> L2    ...complete
     Wmnie -> L2    ...complete
     G -> L2        ...complete
     F -> L2        ...complete
     Wmbej -> L2    ...complete
     L1*F -> L2     ...complete
     L2 amplitudes  ...complete
	   9        -0.215514980290817    4.684e-07
     L1 amplitudes  ...complete
     <ij||ab> -> L2 ...complete
     Wmnij -> L2    ...complete
     Wabef -> L2    ...complete
     Wamef -> L2    ...complete
     Wmnie -> L2    ...complete
     G -> L2        ...complete
     F -> L2        ...complete
     Wmbej -> L2    ...complete
     L1*F -> L2     ...complete
     L2 amplitudes  ...complete
	  10        -0.215514984831673    1.532e-07
     L1 amplitudes  ...complete
     <ij||ab> -> L2 ...complete
     Wmnij -> L2    ...complete
     Wabef -> L2    ...complete
     Wamef -> L2    ...complete
     Wmnie -> L2    ...complete
     G -> L2        ...complete
     F -> L2        ...complete
     Wmbej -> L2    ...complete
     L1*F -> L2     ...complete
     L2 amplitudes  ...complete
	  11        -0.215514984344736    4.043e-08

	Largest LIA Amplitudes:
	          4  17        -0.0154788207
	          2  12         0.0063763698
	          3   4        -0.0061101590
	          3   2         0.0053009511
	          2   7        -0.0052597937
	          3   0        -0.0043019936
	          3  13        -0.0042310655
	          1   2        -0.0041776240
	          3   9         0.0038012392
	          2   3        -0.0029720660

	Largest LIjAb Amplitudes:
	  4   4  18  18        -0.0404106801
	  2   2   5   5        -0.0293350459
	  2   2   3   3        -0.0277918878
	  4   4  17  18        -0.0239639840
	  4   4  18  17        -0.0239639840
	  3   3   8   8        -0.0236376265
	  2   2   3   5        -0.0234586485
	  2   2   5   3        -0.0234586485
	  4   4  17  17        -0.0222735942
	  2   2   6   6        -0.0212366620

	Iterations converged.

[...]
  Alpha electrons per irrep (n = 2): 4  1  
  Beta electrons per irrep (n = 2): 4  1  
  Doubly occupied orbitals per irrep (n = 2): 4  1  
  Singly occupied orbitals per irrep (n = 2): 0  0  

CC Density OPDM (Spin densities are not correct)


Properties computed using the CC density matrix

  Nuclear Dipole Moment: (a.u.)
     X:     0.8153      Y:    -0.5765      Z:     0.0000

  Electronic Dipole Moment: (a.u.)
     X:    -0.1297      Y:     0.0917      Z:     0.0000

  Dipole Moment: (a.u.)
     X:     0.6857      Y:    -0.4848      Z:     0.0000     Total:     0.8397

  Dipole Moment: (Debye)
     X:     1.7427      Y:    -1.2323      Z:     0.0000     Total:     2.1344

  Quadrupole Moment: (Debye Ang)
    XX:    -5.6850     YY:    -5.1174     ZZ:    -7.8190
    XY:     0.8028     XZ:     0.0000     YZ:     0.0000

  Traceless Quadrupole Moment: (Debye Ang)
    XX:     0.5221     YY:     1.0898     ZZ:    -1.6119
    XY:     0.8028     XZ:     0.0000     YZ:     0.0000

  Mulliken Charges: (a.u.)
   Center  Symbol    Alpha    Beta     Spin     Total
       1     O     4.21197  4.21197  0.00000 -0.42393
       2     H     0.39402  0.39402  0.00000  0.21197
       3     H     0.39402  0.39402  0.00000  0.21197

   Total alpha =  5.00000, Total beta =  5.00000, Total charge =  0.00000

  Natural Orbital Occupations:

  Total Occupations:
  HONO-2 :    1App    1.970
  HONO-1 :    3 Ap    1.965
  HONO-0 :    4 Ap    1.963
  LUNO+0 :    5 Ap    0.028
  LUNO+1 :    6 Ap    0.026
  LUNO+2 :    2App    0.020
  LUNO+3 :    7 Ap    0.013


*** tstop() called on avila.localdomain at Wed Feb 25 10:36:49 2015
Module time:
	user time   =       0.36 seconds =       0.01 minutes
	system time =       0.03 seconds =       0.00 minutes
	total time  =          1 seconds =       0.02 minutes
Total time:
	user time   =      10.38 seconds =       0.17 minutes
	system time =       1.91 seconds =       0.03 minutes
	total time  =         16 seconds =       0.27 minutes

*** tstart() called on avila.localdomain
*** at Wed Feb 25 10:36:49 2015

 DERIV: Derivative code.
   by Justin Turney

  Cartesian Displacement SALCs
  By SALC:
  Number of SALCs: 6, nirreps: 1
  Project out translations: False
  Project out rotations: False
	irrep = 0, ncomponent = 1
		0: atom 0, direction x, coef 1.000000
	irrep = 0, ncomponent = 1
		0: atom 0, direction y, coef 1.000000
	irrep = 0, ncomponent = 1
		0: atom 1, direction x, coef 1.000000
	irrep = 0, ncomponent = 1
		0: atom 1, direction y, coef 1.000000
	irrep = 0, ncomponent = 1
		0: atom 2, direction x, coef 1.000000
	irrep = 0, ncomponent = 1
		0: atom 2, direction y, coef 1.000000

  By Atomic Center:
  Number of atomic centers: 3
   Atomic Center 0:
	x component, size = 1
		0: salc 0, irrep 0, coef 1.000000
	y component, size = 1
		0: salc 1, irrep 0, coef 1.000000
	z component, size = 0
   Atomic Center 1:
	x component, size = 1
		0: salc 2, irrep 0, coef 1.000000
	y component, size = 1
		0: salc 3, irrep 0, coef 1.000000
	z component, size = 0
   Atomic Center 2:
	x component, size = 1
		0: salc 4, irrep 0, coef 1.000000
	y component, size = 1
		0: salc 5, irrep 0, coef 1.000000
	z component, size = 0

    Molecular point group: cs
    Full point group: Cs

    Geometry (in Bohr), charge = 0, multiplicity = 1:

       Center              X                  Y                   Z       
    ------------   -----------------  -----------------  -----------------
           O         -0.103591389877     0.073250590508     0.000000000000
           H         -0.002488374670    -1.747315911502     0.000000000000
           H          1.646558906435     0.584775883491     0.000000000000

	Presorting MO-basis TPDM.
	Sorting File: MO TPDM (AA|AA) nbuckets = 1
	Starting first half-transformation.
	h = 0; memfree         = 31999020
	h = 0; rows_per_bucket = 259
	h = 0; rows_left       = 0
	h = 0; nbuckets        = 1
	h = 1; memfree         = 31999412
	h = 1; rows_per_bucket = 147
	h = 1; rows_left       = 0
	h = 1; nbuckets        = 1
	Sorting half-transformed TPDM.
	First half integral transformation complete.
	h = 0; memfree         = 31999020
	h = 0; rows_per_bucket = 259
	h = 0; rows_left       = 0
	h = 0; nbuckets        = 1
	h = 1; memfree         = 31999412
	h = 1; rows_per_bucket = 147
	h = 1; rows_left       = 0
	h = 1; nbuckets        = 1


  -Nuclear Repulsion Energy 1st Derivatives:
     Atom            X                  Y                   Z
    ------   -----------------  -----------------  -----------------
       1        2.443038093407    -1.727498595398     0.000000000000
       2       -0.062651077487     2.502626782534     0.000000000000
       3       -2.380387015919    -0.775128187135     0.000000000000


  -One-electron contribution to gradient:
     Atom            X                  Y                   Z
    ------   -----------------  -----------------  -----------------
       1       -5.789143094690     4.093565563010     0.000000000000
       2        0.114000207822    -5.979082141573     0.000000000000
       3        5.675142886868     1.885516578564     0.000000000000


  -Lagrangian contribution to gradient:
     Atom            X                  Y                   Z
    ------   -----------------  -----------------  -----------------
       1        0.345601571774    -0.244378601923     0.000000000000
       2       -0.015635836458     0.344452841442     0.000000000000
       3       -0.329965735315    -0.100074239518     0.000000000000


  -Two-electron contribution to gradient:
     Atom            X                  Y                   Z
    ------   -----------------  -----------------  -----------------
       1        3.000763332112    -2.121872142278     0.000000000000
       2       -0.035775291057     3.132190505108     0.000000000000
       3       -2.964988041055    -1.010318362830     0.000000000000


  -Total gradient:
     Atom            X                  Y                   Z
    ------   -----------------  -----------------  -----------------
       1        0.000259902602    -0.000183776590     0.000000000000
       2       -0.000061997181     0.000187987510     0.000000000000
       3       -0.000197905422    -0.000004210920     0.000000000000


*** tstop() called on avila.localdomain at Wed Feb 25 10:36:49 2015
Module time:
	user time   =       0.28 seconds =       0.00 minutes
	system time =       0.01 seconds =       0.00 minutes
	total time  =          0 seconds =       0.00 minutes
Total time:
	user time   =      10.66 seconds =       0.18 minutes
	system time =       1.92 seconds =       0.03 minutes
	total time  =         16 seconds =       0.27 minutes

-------------------------------------------------------------

  Computing second-derivative from gradients using projected, 
  symmetry-adapted, cartesian coordinates (fd_freq_1).

  7 gradients passed in, including the reference geometry.
  Generating complete list of displacements from unique ones.

	The atom map:
	 1 :    1   1
	 2 :    2   2
	 3 :    3   3

	Symmetric gradients
  ## Total gradient (Symmetry 0) ##
  Irrep: 1 Size: 3 x 3

                 1                   2                   3

    1    -0.00189695490590    -0.00056326962118     0.00000000000000
    2     0.00012428613176     0.00018781408429     0.00000000000000
    3     0.00177266877405     0.00037545553689     0.00000000000000



  ## Total gradient (Symmetry 0) ##
  Irrep: 1 Size: 3 x 3

                 1                   2                   3

    1     0.00244276136964     0.00020978003832     0.00000000000000
    2    -0.00024850523441     0.00018610350917     0.00000000000000
    3    -0.00219425613528    -0.00039588354738     0.00000000000000



  ## Total gradient (Symmetry 0) ##
  Irrep: 1 Size: 3 x 3

                 1                   2                   3

    1    -0.00061971515073    -0.00297047155955     0.00000000000000
    2    -0.00029699197758     0.00253801886627     0.00000000000000
    3     0.00091670712817     0.00043245269334     0.00000000000000



  ## Total gradient (Symmetry 0) ##
  Irrep: 1 Size: 3 x 3

                 1                   2                   3

    1     0.00114690086324     0.00256524978575     0.00000000000000
    2     0.00017332021614    -0.00212444095049     0.00000000000000
    3    -0.00132022107935    -0.00044080883523     0.00000000000000



  ## Total gradient (Symmetry 0) ##
  Irrep: 1 Size: 3 x 3

                 1                   2                   3

    1    -0.00092689625311     0.00065542166620     0.00000000000000
    2    -0.00028866891185    -0.00139136076943     0.00000000000000
    3     0.00121556516481     0.00073593910326     0.00000000000000



  ## Total gradient (Symmetry 0) ##
  Irrep: 1 Size: 3 x 3

                 1                   2                   3

    1     0.00146356730287    -0.00103490086706     0.00000000000000
    2     0.00016331556359     0.00178330279812     0.00000000000000
    3    -0.00162688286642    -0.00074840193103     0.00000000000000



	All mass-weighted gradients
  ## Total gradient (Symmetry 0) ##
  Irrep: 1 Size: 3 x 3

                 1                   2                   3

    1    -0.00047431410958    -0.00014083978907     0.00000000000000
    2     0.00012380269561     0.00018708354327     0.00000000000000
    3     0.00176577361887     0.00037399512633     0.00000000000000



  ## Total gradient (Symmetry 0) ##
  Irrep: 1 Size: 3 x 3

                 1                   2                   3

    1     0.00061078741532     0.00005245334603     0.00000000000000
    2    -0.00024753862284     0.00018537962178     0.00000000000000
    3    -0.00218572113044    -0.00039434367793     0.00000000000000



  ## Total gradient (Symmetry 0) ##
  Irrep: 1 Size: 3 x 3

                 1                   2                   3

    1    -0.00015495341455    -0.00074273593348     0.00000000000000
    2    -0.00029583676697     0.00252814672649     0.00000000000000
    3     0.00091314140964     0.00043077058076     0.00000000000000



  ## Total gradient (Symmetry 0) ##
  Irrep: 1 Size: 3 x 3

                 1                   2                   3

    1     0.00028677079251     0.00064141438692     0.00000000000000
    2     0.00017264605197    -0.00211617750600     0.00000000000000
    3    -0.00131508581136    -0.00043909421975     0.00000000000000



  ## Total gradient (Symmetry 0) ##
  Irrep: 1 Size: 3 x 3

                 1                   2                   3

    1    -0.00023176089721     0.00016388146236     0.00000000000000
    2    -0.00028754607550    -0.00138594878916     0.00000000000000
    3     0.00121083697725     0.00073307651867     0.00000000000000



  ## Total gradient (Symmetry 0) ##
  Irrep: 1 Size: 3 x 3

                 1                   2                   3

    1     0.00036594998643    -0.00025876634270     0.00000000000000
    2     0.00016268031454     0.00177636627975     0.00000000000000
    3    -0.00162055477514    -0.00074549086974     0.00000000000000



Gradients in B-matrix coordinates
 disp 0:   -0.0015117084  -0.0008136530  -0.0007782476
 disp 1:    0.0019452552   0.0005937329   0.0011259655
 disp 2:   -0.0004930900  -0.0027048784   0.0007173533
 disp 3:    0.0009142624   0.0024408591  -0.0003608964
 disp 4:   -0.0007383428   0.0004180602  -0.0018351322
 disp 5:    0.0011658418  -0.0006601086   0.0021839976

	Force Constants for irrep Ap in mass-weighted, symmetry-adapted cartesian coordinates.

                   0                     1                     2        

    0      0.345696361138141     0.140738597181725     0.190421306618679
    1      0.140735243915029     0.514573748045206    -0.107824961776126
    2      0.190418455974810    -0.107816881665019     0.401912973262072

	Normal coordinates (mass-weighted) for irrep Ap:

           1           2           3

    1  -0.1546492   0.1620016  -0.2199276
    2  -0.2187265  -0.1145354   0.1555116
    3   0.0000000   0.0000000   0.0000000
    4  -0.0377779   0.0060325   0.6801901
    5   0.6802536   0.6929872   0.0326402
    6   0.0000000   0.0000000   0.0000000
    7   0.6538707  -0.6514157   0.1959592
    8   0.1911109  -0.2367004  -0.6521687
    9   0.0000000   0.0000000   0.0000000

        0.5942579   0.5630934   0.1048318

	  Irrep      Harmonic Frequency   
	                  (cm-1)          
	-----------------------------------------------
	     Ap         1664.3736  
	     Ap         3857.3984  
	     Ap         3962.7051  
	-----------------------------------------------

	Normal Modes (mass-weighted).
	Molecular mass is   18.01056 amu.
	Frequencies in cm^-1; force constants in au.

   Frequency:       1664.37
   Force constant:   0.1048
	     X       Y       Z           mass	
  O 	  -0.220   0.156   0.000      15.994915
  H 	   0.680   0.033   0.000       1.007825
  H 	   0.196  -0.652   0.000       1.007825

   Frequency:       3857.40
   Force constant:   0.5631
	     X       Y       Z           mass	
  O 	   0.162  -0.115   0.000      15.994915
  H 	   0.006   0.693   0.000       1.007825
  H 	  -0.651  -0.237   0.000       1.007825

   Frequency:       3962.71
   Force constant:   0.5943
	     X       Y       Z           mass	
  O 	  -0.155  -0.219   0.000      15.994915
  H 	  -0.038   0.680   0.000       1.007825
  H 	   0.654   0.191   0.000       1.007825

	Full force constant matrix in mass-weighted SALCS.

                   0                     1                     2        

    0      0.345696361138141     0.140735243915029     0.190418455974810
    1      0.140735243915029     0.514573748045206    -0.107816881665019
    2      0.190418455974810    -0.107816881665019     0.401912973262072

	Force Constants in mass-weighted cartesian coordinates.

                   0                     1                     2                     3                     4        

    0      0.034061130501915     0.006067770133269     0.000000000000000    -0.011659919709580    -0.000053174628388
    1      0.006067770133269     0.038352159373923     0.000000000000000     0.015610150161626    -0.132580801699276
    2      0.000000000000000     0.000000000000000     0.000000000000000     0.000000000000000     0.000000000000000
    3     -0.011659919709580     0.015610150161626     0.000000000000000     0.049369930884090    -0.010590149008381
    4     -0.000053174628388    -0.132580801699276     0.000000000000000    -0.010590149008381     0.545516566566437
    5      0.000000000000000     0.000000000000000     0.000000000000000     0.000000000000000     0.000000000000000
    6     -0.124033082340902    -0.039782980980887     0.000000000000000    -0.002919050195570     0.010801986515022
    7     -0.024119656190873    -0.020206835231143     0.000000000000000    -0.051597691109573    -0.017340116409471
    8      0.000000000000000     0.000000000000000     0.000000000000000     0.000000000000000     0.000000000000000

                   5                     6                     7                     8        

    0      0.000000000000000    -0.124033082340902    -0.024119656190873     0.000000000000000
    1      0.000000000000000    -0.039782980980887    -0.020206835231143     0.000000000000000
    2      0.000000000000000     0.000000000000000     0.000000000000000     0.000000000000000
    3      0.000000000000000    -0.002919050195570    -0.051597691109573     0.000000000000000
    4      0.000000000000000     0.010801986515022    -0.017340116409471     0.000000000000000
    5      0.000000000000000     0.000000000000000     0.000000000000000     0.000000000000000
    6      0.000000000000000     0.497043028125941     0.147685768890228     0.000000000000000
    7      0.000000000000000     0.147685768890228     0.097840266993114     0.000000000000000
    8      0.000000000000000     0.000000000000000     0.000000000000000     0.000000000000000

	Force Constants in cartesian coordinates.

                   0                     1                     2                     3                     4        

    0      0.544804874223817     0.097053465212756     0.000000000000000    -0.046814360319587    -0.000213495141924
    1      0.097053465212756     0.613439514661659     0.000000000000000     0.062674461961241    -0.532309447818061
    2      0.000000000000000     0.000000000000000     0.000000000000000     0.000000000000000     0.000000000000000
    3     -0.046814360319587     0.062674461961241     0.000000000000000     0.049756252176552    -0.010673017263998
    4     -0.000213495141924    -0.532309447818061     0.000000000000000    -0.010673017263998     0.549785251194535
    5      0.000000000000000     0.000000000000000     0.000000000000000     0.000000000000000     0.000000000000000
    6     -0.497990513904231    -0.159727927173997     0.000000000000000    -0.002941891856965     0.010886512405921
    7     -0.096839970070832    -0.081130066843600     0.000000000000000    -0.052001444697244    -0.017475803376473
    8      0.000000000000000     0.000000000000000     0.000000000000000     0.000000000000000     0.000000000000000

                   5                     6                     7                     8        

    0      0.000000000000000    -0.497990513904231    -0.096839970070832     0.000000000000000
    1      0.000000000000000    -0.159727927173997    -0.081130066843600     0.000000000000000
    2      0.000000000000000     0.000000000000000     0.000000000000000     0.000000000000000
    3      0.000000000000000    -0.002941891856965    -0.052001444697244     0.000000000000000
    4      0.000000000000000     0.010886512405921    -0.017475803376473     0.000000000000000
    5      0.000000000000000     0.000000000000000     0.000000000000000     0.000000000000000
    6      0.000000000000000     0.500932405761197     0.148841414768076     0.000000000000000
    7      0.000000000000000     0.148841414768076     0.098605870220073     0.000000000000000
    8      0.000000000000000     0.000000000000000     0.000000000000000     0.000000000000000

-------------------------------------------------------------

            *********************************************
            * Thermodynamic Analysis by R.A. King, 2012 *
            *********************************************

    Full point group: Cs (Cs)

    Data used to determine thermochemical information:
    Temperature (K):          298.15
    Pressure (Pa)  :       101325.00
    Multiplicity   :               1
    Rotor type     :  ASYMMETRIC_TOP
    Rotational symmetry number :   1

    Rotational constants:
           wavenumbers          GHz
        A:   26.167359    784.47768
        B:   14.643838    439.01120
        C:    9.389349    281.48559

    Nuclear masses:
         15.994915  1.007825  1.007825

    No.    Vib. Freq. (cm^-1)      Vib. Temp. (K)
      1              1664.374            2394.659
      2              3857.398            5549.929
      3              3962.705            5701.442

    Component        Thermal Energy             Cv              S
                           kcal/mol    cal/(mol K)    cal/(mol K) 
    Electronic                0.000          0.000          0.000
    Translational             0.889          2.981         34.608
    Rotational                0.889          2.981         11.882
    Vibrational              13.560          0.042          0.006
    Total                    15.338          6.003         46.496

                               cm^(-1)              au        kcal/mol
    Zero-point energy        4742.2386      0.02160723         13.5587

    Energies in Hartree/particle:   Correction            Total
    Energy (0 K)                    0.02160723     -76.23429348
    Internal energy                 0.02444225     -76.23145846
    Enthalpy                        0.02538644     -76.23051427
    Gibbs Free Energy               0.00329483     -76.25260588

*** PSI4 exiting successfully. Buy a developer a beer!
