----- GAMESS execution script 'rungms' -----
This job is running on host tizard28
under operating system Linux at Fri Nov 7 09:12:02 CST 2014
PBS has assigned the following compute nodes to this run:
tizard28
Available scratch disk space (Kbyte units) at beginning of the job is
Filesystem           1K-blocks      Used Available Use% Mounted on
10.4.29.11:/export/compellent/hpcscratch
                     4227573696 1924479296 2088359136  48% /scratch
GAMESS temporary binary files will be written to /scratch/868355.tizard1
GAMESS supplementary output files will be written to /home/users/tnann/scr-gamess
Copying input file HQ.inp to your run's scratch directory...
cp HQ.inp /scratch/868355.tizard1/HQ.F05
unset echo
reading your own /home/users/tnann/.gmsrc
Using Default: Current settings NCPUS[8] NNODES[1] HOSTLIST[tizard28:cpus=8]
/opt/shared/gamess/2014-intel11.10.319-1.6.4/ddikick.x /opt/shared/gamess/2014-intel11.10.319-1.6.4/gamess.00.x HQ -ddi 1 8 tizard28:cpus=8:netext=.myri -scr /scratch/868355.tizard1

 Distributed Data Interface kickoff program.
 Initiating 8 compute processes on 1 nodes to run the following command:
 /opt/shared/gamess/2014-intel11.10.319-1.6.4/gamess.00.x HQ 

          ******************************************************
          *         GAMESS VERSION =  1 MAY 2013 (R1)          *
          *             FROM IOWA STATE UNIVERSITY             *
          * M.W.SCHMIDT, K.K.BALDRIDGE, J.A.BOATZ, S.T.ELBERT, *
          *   M.S.GORDON, J.H.JENSEN, S.KOSEKI, N.MATSUNAGA,   *
          *          K.A.NGUYEN, S.J.SU, T.L.WINDUS,           *
          *       TOGETHER WITH M.DUPUIS, J.A.MONTGOMERY       *
          *         J.COMPUT.CHEM.  14, 1347-1363(1993)        *
          **************** 64 BIT INTEL VERSION ****************

  SINCE 1993, STUDENTS AND POSTDOCS WORKING AT IOWA STATE UNIVERSITY
  AND ALSO IN THEIR VARIOUS JOBS AFTER LEAVING ISU HAVE MADE IMPORTANT
  CONTRIBUTIONS TO THE CODE:
     IVANA ADAMOVIC, CHRISTINE AIKENS, YURI ALEXEEV, POOJA ARORA,
     ANDREY ASADCHEV, ROB BELL, PRADIPTA BANDYOPADHYAY, JONATHAN BENTZ,
     BRETT BODE, GALINA CHABAN, WEI CHEN, CHEOL HO CHOI, PAUL DAY,
     ALBERT DEFUSCO, TIM DUDLEY, DMITRI FEDOROV, GRAHAM FLETCHER,
     MARK FREITAG, KURT GLAESEMANN, DAN KEMP, GRANT MERRILL,
     NORIYUKI MINEZAWA, JONATHAN MULLIN, TAKESHI NAGATA,
     SEAN NEDD, HEATHER NETZLOFF, BOSILJKA NJEGIC, RYAN OLSON, MIKE PAK,
     JIM SHOEMAKER, LYUDMILA SLIPCHENKO, SAROM SOK, JIE SONG,
     TETSUYA TAKETSUGU, SIMON WEBB, SOOHAENG YOO, FEDERICO ZAHARIEV

  ADDITIONAL CODE HAS BEEN PROVIDED BY COLLABORATORS IN OTHER GROUPS:
     IOWA STATE UNIVERSITY:
          JOE IVANIC, LAIMUTIS BYTAUTAS, KLAUS RUEDENBERG
     UNIVERSITY OF TOKYO: KIMIHIKO HIRAO, TAKAHITO NAKAJIMA,
          TAKAO TSUNEDA, MUNEAKI KAMIYA, SUSUMU YANAGISAWA,
          KIYOSHI YAGI, MAHITO CHIBA, SEIKEN TOKURA, NAOAKI KAWAKAMI
     UNIVERSITY OF AARHUS: FRANK JENSEN
     UNIVERSITY OF IOWA: VISVALDAS KAIRYS, HUI LI
     NATIONAL INST. OF STANDARDS AND TECHNOLOGY: WALT STEVENS, DAVID GARMER
     UNIVERSITY OF PISA: BENEDETTA MENNUCCI, JACOPO TOMASI
     UNIVERSITY OF MEMPHIS: HENRY KURTZ, PRAKASHAN KORAMBATH
     UNIVERSITY OF ALBERTA: TOBY ZENG, MARIUSZ KLOBUKOWSKI
     UNIVERSITY OF NEW ENGLAND: MARK SPACKMAN
     MIE UNIVERSITY: HIROAKI UMEDA
     MICHIGAN STATE UNIVERSITY:
          KAROL KOWALSKI, MARTA WLOCH, JEFFREY GOUR, JESSE LUTZ,
          WEI LI, PIOTR PIECUCH
     UNIVERSITY OF SILESIA: MONIKA MUSIAL, STANISLAW KUCHARSKI
     FACULTES UNIVERSITAIRES NOTRE-DAME DE LA PAIX:
          OLIVIER QUINET, BENOIT CHAMPAGNE
     UNIVERSITY OF CALIFORNIA - SANTA BARBARA: BERNARD KIRTMAN
     INSTITUTE FOR MOLECULAR SCIENCE:
          KAZUYA ISHIMURA, MICHIO KATOUDA, AND SHIGERU NAGASE
     UNIVERSITY OF NOTRE DAME: DAN CHIPMAN
     KYUSHU UNIVERSITY:
          HARUYUKI NAKANO,
          FENG LONG GU, JACEK KORCHOWIEC, MARCIN MAKOWSKI, AND YURIKO AOKI,
          HIROTOSHI MORI AND EISAKU MIYOSHI
     PENNSYLVANIA STATE UNIVERSITY:
          TZVETELIN IORDANOV, CHET SWALINA, JONATHAN SKONE,
          SHARON HAMMES-SCHIFFER
     WASEDA UNIVERSITY:
          MASATO KOBAYASHI, TOMOKO AKAMA, TSUGUKI TOUMA,
          TAKESHI YOSHIKAWA, YASUHIRO IKABATA, HIROMI NAKAI
     NANJING UNIVERSITY: SHUHUA LI
     UNIVERSITY OF NEBRASKA:
          PEIFENG SU, DEJUN SI, NANDUN THELLAMUREGE, YALI WANG, HUI LI
     UNIVERSITY OF ZURICH:
          ROBERTO PEVERATI, KIM BALDRIDGE
     N. COPERNICUS UNIVERSITY AND JACKSON STATE UNIVERSITY:
          MARIA BARYSZ


 PARALLEL VERSION RUNNING ON     8 PROCESSORS IN     1 NODES.

 EXECUTION OF GAMESS BEGUN Fri Nov  7 09:12:03 2014

            ECHO OF THE FIRST FEW INPUT CARDS -
 INPUT CARD>!                                                                               
 INPUT CARD>! Hydroquinone (equil. geom.)                                                   
 INPUT CARD>!                                                                               
 INPUT CARD> $BASIS GBASIS=N31 NGAUSS=6 NDFUNC=1 NPFUNC=1 $END                              
 INPUT CARD>! $PCM SOLVNT=WATER $END                                                        
 INPUT CARD> $CONTRL SCFTYP=RHF RUNTYP=hessian DFTTYP=B3LYP $END                            
 INPUT CARD> $statpt opttol=0.0001 nstep=50 $end                                            
 INPUT CARD>! $guess guess=MOREAD norb=920 $end                                             
 INPUT CARD> $contrl nzvar=36 $end ! 3N-6 -> N number of atoms (degrees of freedom)         
 INPUT CARD> $zmat dlc=.t. auto=.t. $end                                                    
 INPUT CARD> $scf dirscf=.t. diis=.t. damp=.t. fdiff=.f. soscf=.f. $end                     
 INPUT CARD>! $contrl exetyp=check $end                                                     
 INPUT CARD> $force nvib=2 $end                                                             
 INPUT CARD> $system timlim=1440 mwords=10 memddi=5 parall=.t. $end                         
 INPUT CARD>                                                                                
 INPUT CARD> $DATA                                                                          
 INPUT CARD>hydroquinone (14 atoms)                                                         
 INPUT CARD>C1                                                                              
 INPUT CARD> C           6.0  -2.9538725823   3.0842265298   0.5106385543                   
 INPUT CARD> C           6.0  -1.5734668108   3.1948758447   0.3135232266                   
 INPUT CARD> C           6.0  -0.8082220604   2.0379832608   0.1471123664                   
 INPUT CARD> C           6.0  -1.4192207070   0.7854458038   0.1773236832                   
 INPUT CARD> C           6.0  -2.7996948643   0.6748191451   0.3739591416                   
 INPUT CARD> C           6.0  -3.5648558301   1.8316850686   0.5409300766                   
 INPUT CARD> H           1.0  -4.6350241938   1.7382053262   0.6934399225                   
 INPUT CARD> H           1.0  -3.5580123278   3.9800283129   0.6413078429                   
 INPUT CARD> O           8.0  -0.9188063845   4.4005766491   0.2742610766                   
 INPUT CARD> H           1.0   0.2619871950   2.1314465940  -0.0051186061                   
 INPUT CARD> H           1.0  -0.8150880893  -0.1103556940   0.0466172957                   
 INPUT CARD> O           8.0  -3.4545141707  -0.5308302855   0.4121805122                   
 INPUT CARD> H           1.0  -1.5620120178   5.1102425776   0.3994663952                   
 INPUT CARD> H           1.0  -2.8117544556  -1.2403637016   0.2839699588                   
 INPUT CARD> $END                                                                           
 INPUT CARD>                                                                                
   10000000 WORDS OF MEMORY AVAILABLE

     BASIS OPTIONS
     -------------
     GBASIS=N31          IGAUSS=       6      POLAR=POPN31  
     NDFUNC=       1     NFFUNC=       0     DIFFSP=       F
     NPFUNC=       1      DIFFS=       F     BASNAM=        


     RUN TITLE
     ---------
 hydroquinone (14 atoms)                                                         

 THE POINT GROUP OF THE MOLECULE IS C1      
 THE ORDER OF THE PRINCIPAL AXIS IS     0

 ATOM      ATOMIC                      COORDINATES (BOHR)
           CHARGE         X                   Y                   Z
 C           6.0    -5.5820097832        5.8283430254        0.9649669464
 C           6.0    -2.9734211232        6.0374399113        0.5924729891
 C           6.0    -1.5273182314        3.8512299305        0.2780020619
 C           6.0    -2.6819382523        1.4842773474        0.3350931724
 C           6.0    -5.2906561428        1.2752232755        0.7066803082
 C           6.0    -6.7366007046        3.4613828755        1.0222096233
 H           1.0    -8.7589256727        3.2847317769        1.3104114425
 H           1.0    -6.7236683605        7.5211629348        1.2118960969
 O           8.0    -1.7362923025        8.3158840548        0.5182782839
 H           1.0     0.4950840108        4.0278500201       -0.0096727630
 H           1.0    -1.5402931446       -0.2085420228        0.0880939152
 O           8.0    -6.5280852033       -1.0031237856        0.7789082255
 H           1.0    -2.9517747032        9.6569582025        0.7548820282
 H           1.0    -5.3134454658       -2.3439475211        0.5366254109

          INTERNUCLEAR DISTANCES (ANGS.)
          ------------------------------

                1 C          2 C          3 C          4 C          5 C     

   1 C       0.0000000    1.3987916 *  2.4146620 *  2.7839986 *  2.4182010 *
   2 C       1.3987916 *  0.0000000    1.3970299 *  2.4182008 *  2.8032077 *
   3 C       2.4146620 *  1.3970299 *  0.0000000    1.3939448 *  2.4239719 *
   4 C       2.7839986 *  2.4182008 *  1.3939448 *  0.0000000    1.3987897 *
   5 C       2.4182010 *  2.8032077 *  2.4239719 *  1.3987897 *  0.0000000  
   6 C       1.3939434 *  2.4239705 *  2.7922538 *  2.4146586 *  1.3970288 *
   7 H       2.1613561 *  3.4116505    3.8772097    3.3934523    2.1450622 *
   8 H       1.0883566 *  2.1592425 *  3.4025159    3.8723466    3.4016067  
   9 O       2.4351892 *  1.3725291 *  2.3685952 *  3.6508879    4.1747994  
  10 H       3.3934568    2.1450655 *  1.0850150 *  2.1613568 *  3.4116507  
  11 H       3.8723469    3.4016074    2.1506991 *  1.0883569 *  2.1592397 *
  12 O       3.6508864    4.1748004    3.6975568    2.4351920 *  1.3725304 *
  13 H       2.4605642 *  1.9173281 *  3.1734302    4.3328517    4.6049420  
  14 H       4.3328578    4.6049516    3.8445326    2.4605747 *  1.9173338 *

                6 C          7 H          8 H          9 O         10 H     

   1 C       1.3939434 *  2.1613561 *  1.0883566 *  2.4351892 *  3.3934568  
   2 C       2.4239705 *  3.4116505    2.1592425 *  1.3725291 *  2.1450655 *
   3 C       2.7922538 *  3.8772097    3.4025159    2.3685952 *  1.0850150 *
   4 C       2.4146586 *  3.3934523    3.8723466    3.6508879    2.1613568 *
   5 C       1.3970288 *  2.1450622 *  3.4016067    4.1747994    3.4116507  
   6 C       0.0000000    1.0850152 *  2.1506978 *  3.6975524    3.8772095  
   7 H       1.0850152 *  0.0000000    2.4876581 *  4.5906652    4.9621914  
   8 H       2.1506978 *  2.4876581 *  0.0000000    2.6975901 *  4.2927285  
   9 O       3.6975524    4.5906652    2.6975901 *  0.0000000    2.5731843 *
  10 H       3.8772095    4.9621914    4.2927285    2.5731843 *  0.0000000  
  11 H       3.4025123    4.2927228    4.9606987    4.5178634    2.4876586 *
  12 O       2.3685925 *  2.5731757 *  4.5178597    5.5468559    4.5906687  
  13 H       3.8445201    4.5717020    2.3064884 *  0.9659273 *  3.5162320  
  14 H       3.1734325    3.5162269    5.2855543    5.9500886    4.5717135  

               11 H         12 O         13 H         14 H     

   1 C       3.8723469    3.6508864    2.4605642 *  4.3328578  
   2 C       3.4016074    4.1748004    1.9173281 *  4.6049516  
   3 C       2.1506991 *  3.6975568    3.1734302    3.8445326  
   4 C       1.0883569 *  2.4351920 *  4.3328517    2.4605747 *
   5 C       2.1592397 *  1.3725304 *  4.6049420    1.9173338 *
   6 C       3.4025123    2.3685925 *  3.8445201    3.1734325  
   7 H       4.2927228    2.5731757 *  4.5717020    3.5162269  
   8 H       4.9606987    4.5178597    2.3064884 *  5.2855543  
   9 O       4.5178634    5.5468559    0.9659273 *  5.9500886  
  10 H       2.4876586 *  4.5906687    3.5162320    4.5717135  
  11 H       0.0000000    2.6975925 *  5.2855505    2.3064976 *
  12 O       2.6975925 *  0.0000000    5.9500781    0.9659274 *
  13 H       5.2855505    5.9500781    0.0000000    6.4734377  
  14 H       2.3064976 *  0.9659274 *  6.4734377    0.0000000  

  * ... LESS THAN  3.000


     ATOMIC BASIS SET
     ----------------
 THE CONTRACTED PRIMITIVE FUNCTIONS HAVE BEEN UNNORMALIZED
 THE CONTRACTED BASIS FUNCTIONS ARE NOW NORMALIZED TO UNITY

  SHELL TYPE  PRIMITIVE        EXPONENT          CONTRACTION COEFFICIENT(S)

 C         

      1   S       1          3047.5248800    0.001834737132
      1   S       2           457.3695180    0.014037322813
      1   S       3           103.9486850    0.068842622264
      1   S       4            29.2101553    0.232184443216
      1   S       5             9.2866630    0.467941348435
      1   S       6             3.1639270    0.362311985337

      2   L       7             7.8682723   -0.119332419775    0.068999066591
      2   L       8             1.8812885   -0.160854151696    0.316423960957
      2   L       9             0.5442493    1.143456437840    0.744308290898

      3   L      10             0.1687145    1.000000000000    1.000000000000

      4   D      11             0.8000000    1.000000000000

 C         

      5   S      12          3047.5248800    0.001834737132
      5   S      13           457.3695180    0.014037322813
      5   S      14           103.9486850    0.068842622264
      5   S      15            29.2101553    0.232184443216
      5   S      16             9.2866630    0.467941348435
      5   S      17             3.1639270    0.362311985337

      6   L      18             7.8682723   -0.119332419775    0.068999066591
      6   L      19             1.8812885   -0.160854151696    0.316423960957
      6   L      20             0.5442493    1.143456437840    0.744308290898

      7   L      21             0.1687145    1.000000000000    1.000000000000

      8   D      22             0.8000000    1.000000000000

 C         

      9   S      23          3047.5248800    0.001834737132
      9   S      24           457.3695180    0.014037322813
      9   S      25           103.9486850    0.068842622264
      9   S      26            29.2101553    0.232184443216
      9   S      27             9.2866630    0.467941348435
      9   S      28             3.1639270    0.362311985337

     10   L      29             7.8682723   -0.119332419775    0.068999066591
     10   L      30             1.8812885   -0.160854151696    0.316423960957
     10   L      31             0.5442493    1.143456437840    0.744308290898

     11   L      32             0.1687145    1.000000000000    1.000000000000

     12   D      33             0.8000000    1.000000000000

 C         

     13   S      34          3047.5248800    0.001834737132
     13   S      35           457.3695180    0.014037322813
     13   S      36           103.9486850    0.068842622264
     13   S      37            29.2101553    0.232184443216
     13   S      38             9.2866630    0.467941348435
     13   S      39             3.1639270    0.362311985337

     14   L      40             7.8682723   -0.119332419775    0.068999066591
     14   L      41             1.8812885   -0.160854151696    0.316423960957
     14   L      42             0.5442493    1.143456437840    0.744308290898

     15   L      43             0.1687145    1.000000000000    1.000000000000

     16   D      44             0.8000000    1.000000000000

 C         

     17   S      45          3047.5248800    0.001834737132
     17   S      46           457.3695180    0.014037322813
     17   S      47           103.9486850    0.068842622264
     17   S      48            29.2101553    0.232184443216
     17   S      49             9.2866630    0.467941348435
     17   S      50             3.1639270    0.362311985337

     18   L      51             7.8682723   -0.119332419775    0.068999066591
     18   L      52             1.8812885   -0.160854151696    0.316423960957
     18   L      53             0.5442493    1.143456437840    0.744308290898

     19   L      54             0.1687145    1.000000000000    1.000000000000

     20   D      55             0.8000000    1.000000000000

 C         

     21   S      56          3047.5248800    0.001834737132
     21   S      57           457.3695180    0.014037322813
     21   S      58           103.9486850    0.068842622264
     21   S      59            29.2101553    0.232184443216
     21   S      60             9.2866630    0.467941348435
     21   S      61             3.1639270    0.362311985337

     22   L      62             7.8682723   -0.119332419775    0.068999066591
     22   L      63             1.8812885   -0.160854151696    0.316423960957
     22   L      64             0.5442493    1.143456437840    0.744308290898

     23   L      65             0.1687145    1.000000000000    1.000000000000

     24   D      66             0.8000000    1.000000000000

 H         

     25   S      67            18.7311370    0.033494604338
     25   S      68             2.8253944    0.234726953484
     25   S      69             0.6401217    0.813757326146

     26   S      70             0.1612778    1.000000000000

     27   P      71             1.1000000    1.000000000000

 H         

     28   S      72            18.7311370    0.033494604338
     28   S      73             2.8253944    0.234726953484
     28   S      74             0.6401217    0.813757326146

     29   S      75             0.1612778    1.000000000000

     30   P      76             1.1000000    1.000000000000

 O         

     31   S      77          5484.6716600    0.001831074430
     31   S      78           825.2349460    0.013950172200
     31   S      79           188.0469580    0.068445078098
     31   S      80            52.9645000    0.232714335992
     31   S      81            16.8975704    0.470192897984
     31   S      82             5.7996353    0.358520852987

     32   L      83            15.5396162   -0.110777549525    0.070874268231
     32   L      84             3.5999336   -0.148026262701    0.339752839147
     32   L      85             1.0137618    1.130767015354    0.727158577316

     33   L      86             0.2700058    1.000000000000    1.000000000000

     34   D      87             0.8000000    1.000000000000

 H         

     35   S      88            18.7311370    0.033494604338
     35   S      89             2.8253944    0.234726953484
     35   S      90             0.6401217    0.813757326146

     36   S      91             0.1612778    1.000000000000

     37   P      92             1.1000000    1.000000000000

 H         

     38   S      93            18.7311370    0.033494604338
     38   S      94             2.8253944    0.234726953484
     38   S      95             0.6401217    0.813757326146

     39   S      96             0.1612778    1.000000000000

     40   P      97             1.1000000    1.000000000000

 O         

     41   S      98          5484.6716600    0.001831074430
     41   S      99           825.2349460    0.013950172200
     41   S     100           188.0469580    0.068445078098
     41   S     101            52.9645000    0.232714335992
     41   S     102            16.8975704    0.470192897984
     41   S     103             5.7996353    0.358520852987

     42   L     104            15.5396162   -0.110777549525    0.070874268231
     42   L     105             3.5999336   -0.148026262701    0.339752839147
     42   L     106             1.0137618    1.130767015354    0.727158577316

     43   L     107             0.2700058    1.000000000000    1.000000000000

     44   D     108             0.8000000    1.000000000000

 H         

     45   S     109            18.7311370    0.033494604338
     45   S     110             2.8253944    0.234726953484
     45   S     111             0.6401217    0.813757326146

     46   S     112             0.1612778    1.000000000000

     47   P     113             1.1000000    1.000000000000

 H         

     48   S     114            18.7311370    0.033494604338
     48   S     115             2.8253944    0.234726953484
     48   S     116             0.6401217    0.813757326146

     49   S     117             0.1612778    1.000000000000

     50   P     118             1.1000000    1.000000000000

 TOTAL NUMBER OF BASIS SET SHELLS             =   50
 NUMBER OF CARTESIAN GAUSSIAN BASIS FUNCTIONS =  150
 NUMBER OF ELECTRONS                          =   58
 CHARGE OF MOLECULE                           =    0
 SPIN MULTIPLICITY                            =    1
 NUMBER OF OCCUPIED ORBITALS (ALPHA)          =   29
 NUMBER OF OCCUPIED ORBITALS (BETA )          =   29
 TOTAL NUMBER OF ATOMS                        =   14
 THE NUCLEAR REPULSION ENERGY IS      343.9152156872

     LEBEDEV GRID-BASED DFT OPTIONS
     ------------------------------
     DFTTYP=B3LYP   
     NRAD  =      96     NLEB  =     302
     NRAD0 =      96     NLEB0 =     302
     SWOFF =    5.00E-03 (PURE SCF -> DFT)
     SWITCH=    3.00E-04 (COARSE -> TIGHT GRID)
     THRESH=    0.00E+00 GTHRE=    1.00E+00

 GRIMME'S EMPIRICAL DISPERSION CORRECTION= F

     $CONTRL OPTIONS
     ---------------
 SCFTYP=RHF          RUNTYP=HESSIAN      EXETYP=RUN     
 MPLEVL=       0     CITYP =NONE         CCTYP =NONE         VBTYP =NONE    
 DFTTYP=B3LYP        TDDFT =NONE    
 MULT  =       1     ICHARG=       0     NZVAR =      36     COORD =UNIQUE  
 PP    =NONE         RELWFN=NONE         LOCAL =NONE         NUMGRD=       F
 ISPHER=      -1     NOSYM =       0     MAXIT =      30     UNITS =ANGS    
 PLTORB=       F     MOLPLT=       F     AIMPAC=       F     FRIEND=        
 NPRINT=       7     IREST =       0     GEOM  =INPUT   
 NORMF =       0     NORMP =       0     ITOL  =      20     ICUT  =       9
 INTTYP=BEST         GRDTYP=BEST         QMTTOL= 1.0E-06

     $SYSTEM OPTIONS
     ---------------
  REPLICATED MEMORY=    10000000 WORDS (ON EVERY NODE).
 DISTRIBUTED MEMDDI=           5 MILLION WORDS IN AGGREGATE,
 MEMDDI DISTRIBUTED OVER   8 PROCESSORS IS      625000 WORDS/PROCESSOR.
 TOTAL MEMORY REQUESTED ON EACH PROCESSOR=    10625000 WORDS.
 TIMLIM=        1440.00 MINUTES, OR       1.0 DAYS.
 PARALL= T  BALTYP=  DLB     KDIAG=    0  COREFL= F
 MXSEQ2=     300 MXSEQ3=     150

          ----------------
          PROPERTIES INPUT
          ----------------

     MOMENTS            FIELD           POTENTIAL          DENSITY
 IEMOM =       1   IEFLD =       0   IEPOT =       0   IEDEN =       0
 WHERE =COMASS     WHERE =NUCLEI     WHERE =NUCLEI     WHERE =NUCLEI  
 OUTPUT=BOTH       OUTPUT=BOTH       OUTPUT=BOTH       OUTPUT=BOTH    
 IEMINT=       0   IEFINT=       0                     IEDINT=       0
                                                       MORB  =       0
          EXTRAPOLATION IN EFFECT
          DAMPING IN EFFECT
          DIIS IN EFFECT
 ORBITAL PRINTING OPTION: NPREO=     1   150     2     1

     -------------------------------
     INTEGRAL TRANSFORMATION OPTIONS
     -------------------------------
     NWORD  =            0
     CUTOFF = 1.0E-09     MPTRAN =       0
     DIRTRF =       T     AOINTS =DUP     

          ----------------------
          INTEGRAL INPUT OPTIONS
          ----------------------
 NOPK  =       1 NORDER=       0 SCHWRZ=       T

     ------------------------------------------
     THE POINT GROUP IS C1 , NAXIS= 0, ORDER= 1
     ------------------------------------------

     DIMENSIONS OF THE SYMMETRY SUBSPACES ARE
 A   =  150

 ..... DONE SETTING UP THE RUN .....
 CPU     0: STEP CPU TIME=     0.03 TOTAL CPU TIME=        0.0 (    0.0 MIN)
 TOTAL WALL CLOCK TIME=        0.1 SECONDS, CPU UTILIZATION IS  30.00%

     ---------------------------------
     HESSIAN MATRIX CONTROL PARAMETERS
     ---------------------------------
     METHOD=SEMINUM    NVIB  =       2   VIBSIZ= 0.01000
     RDHESS=       F   PURIFY=       F   PRTIFC=       F
     VIBANL=       T   DECOMP=       F   PROJCT=       F
     SCLFAC= 1.00000   PRTSCN=       F   NPRT  =       0
     PULCOR=       F   NPUN  =       0   REDOVB=       T
     THERMOCHEMISTRY WILL BE PRINTED FOR    1 TEMPERATURES:
      298.15000
 
 
 -----------------------------------------------
  STATISTICS ON AUTOMATIC COORDINATE GENERATION 
 -----------------------------------------------
  NUMBER OF USER SPECIFIED BONDS                              0
  NUMBER OF BONDS                                            14
  NUMBER OF ANGLES                                           20
  NUMBER OF TORSIONS                                         28
  NUMBER OF EXTRA COORD.                                      0
  NUMBER OF EXTRA COORD. FOR CONSTRAINTS                      0
  NUMBER OF CONSTRAINED COORD.                                0
 
  TOTAL NUMBER OF PRIMITIVES                                 62
 -----------------------------------------------

   --- ENCODED Z MATRIX ---
 COORD  TYPE   I   J   K   L   M   N
    1      1    1   2
    2      1    1   6
    3      1    1   8
    4      1    2   9
    5      1    2   3
    6      1    3   4
    7      1    3  10
    8      1    4  11
    9      1    4   5
   10      1    5  12
   11      1    5   6
   12      1    6   7
   13      1    9  13
   14      1   12  14
   15      2    1   6   7
   16      2    1   6   5
   17      2    1   2   3
   18      2    1   2   9
   19      2    2   3   4
   20      2    2   3  10
   21      2    2   1   6
   22      2    2   1   8
   23      2    2   9  13
   24      2    3   4   5
   25      2    3   4  11
   26      2    3   2   9
   27      2    4   3  10
   28      2    4   5   6
   29      2    4   5  12
   30      2    5   4  11
   31      2    5   6   7
   32      2    5  12  14
   33      2    6   1   8
   34      2    6   5  12
   35      3    1   2   9  13
   36      3    1   6   5  12
   37      3    1   6   5   4
   38      3    1   2   3  10
   39      3    1   2   3   4
   40      3    2   1   6   5
   41      3    2   1   6   7
   42      3    2   3   4   5
   43      3    2   3   4  11
   44      3    3   4   5   6
   45      3    3   4   5  12
   46      3    3   2   1   6
   47      3    3   2   9  13
   48      3    3   2   1   8
   49      3    4   3   2   9
   50      3    4   5  12  14
   51      3    4   5   6   7
   52      3    5   4   3  10
   53      3    5   6   1   8
   54      3    6   5  12  14
   55      3    6   1   2   9
   56      3    6   5   4  11
   57      3    7   6   5  12
   58      3    7   6   1   8
   59      3    8   1   2   9
   60      3    9   2   3  10
   61      3   10   3   4  11
   62      3   11   4   5  12

          INDEP./SYM. INTERNAL COORDINATES
          --------------------------------
 CRD  1=  -0.2098 (  1) -0.1903 (  2)  0.1180 (  5)  0.1903 (  6)  0.2098 (  9)
          -0.1180 ( 11) -0.4068 ( 18) -0.2466 ( 23)  0.3690 ( 26)  0.4068 ( 29)
           0.2466 ( 32) -0.3690 ( 34)
 CRD  2=   0.1540 (  1)  0.1209 (  2)  0.2074 (  4)  0.1209 (  6)  0.1540 (  9)
           0.2074 ( 10)  0.1287 ( 16) -0.1165 ( 17)  0.3980 ( 18)  0.1287 ( 19)
          -0.1530 ( 20)  0.3290 ( 23) -0.2816 ( 26) -0.1165 ( 28)  0.3980 ( 29)
          -0.1530 ( 31)  0.3290 ( 32) -0.2815 ( 34)
 CRD  3=   0.2276 (  2)  0.3010 (  4)  0.2443 (  5)  0.2276 (  6)  0.3010 ( 10)
           0.2443 ( 11)  0.1810 ( 13)  0.1810 ( 14) -0.1336 ( 15) -0.2041 ( 17)
          -0.1118 ( 18)  0.1055 ( 21) -0.1567 ( 22)  0.1956 ( 23)  0.1055 ( 24)
           0.3158 ( 26) -0.1336 ( 27) -0.2041 ( 28) -0.1118 ( 29) -0.1567 ( 30)
           0.1956 ( 32)  0.3158 ( 34)
 CRD  4=   0.1967 (  1)  0.2705 (  4)  0.3671 (  5) -0.1967 (  9) -0.2705 ( 10)
          -0.3671 ( 11)  0.1310 ( 13) -0.1310 ( 14)  0.1370 ( 15) -0.1678 ( 17)
           0.1904 ( 20)  0.1586 ( 22)  0.2304 ( 23)  0.1800 ( 25)  0.1666 ( 26)
          -0.1370 ( 27)  0.1678 ( 28) -0.1586 ( 30) -0.1904 ( 31) -0.2304 ( 32)
          -0.1800 ( 33) -0.1666 ( 34)
 CRD  5=  -0.1790 ( 35)  0.3286 ( 36)  0.2366 ( 37)  0.2366 ( 39) -0.1483 ( 43)
          -0.1821 ( 44) -0.2793 ( 45) -0.1821 ( 46) -0.2744 ( 47)  0.3286 ( 49)
          -0.1790 ( 50) -0.1483 ( 53) -0.2744 ( 54) -0.2793 ( 55)  0.1819 ( 57)
          -0.1858 ( 59)  0.1819 ( 60) -0.1858 ( 62)
 CRD  6=   0.2407 (  1) -0.1917 (  2)  0.1344 (  3)  0.3111 (  5) -0.1917 (  6)
           0.1344 (  8)  0.2407 (  9)  0.3111 ( 11) -0.2713 ( 15)  0.2633 ( 20)
           0.2864 ( 22) -0.2147 ( 25) -0.2713 ( 27)  0.2864 ( 30)  0.2633 ( 31)
          -0.2147 ( 33)
 CRD  7=  -0.3618 (  2) -0.1180 (  3)  0.3618 (  6)  0.1180 (  8) -0.3340 ( 15)
          -0.2792 ( 20)  0.1005 ( 21)  0.1920 ( 22) -0.1005 ( 24)  0.2925 ( 25)
           0.3340 ( 27) -0.1920 ( 30)  0.2792 ( 31) -0.2925 ( 33)
 CRD  8=  -0.2353 (  1)  0.2183 (  3)  0.1094 (  5) -0.2561 (  7)  0.2183 (  8)
          -0.2353 (  9)  0.1094 ( 11) -0.2561 ( 12) -0.1176 ( 15)  0.2963 ( 16)
           0.2963 ( 19) -0.1787 ( 20) -0.3397 ( 21)  0.1263 ( 22) -0.3397 ( 24)
           0.2134 ( 25) -0.1176 ( 27)  0.1263 ( 30) -0.1787 ( 31)  0.2134 ( 33)
 CRD  9=  -0.2297 (  1) -0.2936 (  2) -0.2380 (  3) -0.2258 (  5) -0.2936 (  6)
          -0.2322 (  7) -0.2380 (  8) -0.2297 (  9) -0.2258 ( 11) -0.2322 ( 12)
          -0.1999 ( 15)  0.1084 ( 16) -0.2258 ( 17)  0.1102 ( 18)  0.1084 ( 19)
           0.1173 ( 21)  0.1173 ( 24) -0.2037 ( 25)  0.1155 ( 26) -0.1999 ( 27)
          -0.2258 ( 28)  0.1102 ( 29) -0.2037 ( 33)  0.1155 ( 34)
 CRD 10=   0.2529 (  1)  0.2251 (  3) -0.2192 (  4)  0.1548 (  7) -0.2251 (  8)
          -0.2529 (  9)  0.2192 ( 10) -0.1548 ( 12) -0.1446 ( 13)  0.1446 ( 14)
           0.1414 ( 16) -0.1414 ( 19)  0.1405 ( 20) -0.1773 ( 21)  0.2892 ( 22)
          -0.3337 ( 23)  0.1773 ( 24)  0.1119 ( 25) -0.2892 ( 30) -0.1405 ( 31)
           0.3337 ( 32) -0.1119 ( 33)
 CRD 11=   0.2576 ( 35)  0.2279 ( 36) -0.1004 ( 40)  0.1004 ( 42)  0.1271 ( 43)
          -0.2355 ( 45)  0.3910 ( 47)  0.1266 ( 48) -0.2279 ( 49) -0.2576 ( 50)
          -0.1271 ( 53) -0.3910 ( 54)  0.2355 ( 55) -0.1266 ( 56)  0.1779 ( 57)
           0.2624 ( 59) -0.1779 ( 60) -0.2624 ( 62)
 CRD 12=  -0.1383 ( 36) -0.1222 ( 37) -0.1222 ( 39)  0.3477 ( 40)  0.2827 ( 41)
           0.3477 ( 42)  0.2753 ( 43) -0.2247 ( 44) -0.2077 ( 45) -0.2247 ( 46)
          -0.1521 ( 48) -0.1383 ( 49)  0.2827 ( 52)  0.2753 ( 53) -0.2077 ( 55)
          -0.1521 ( 56)  0.2103 ( 58) -0.1351 ( 59)  0.2103 ( 61) -0.1350 ( 62)
 CRD 13=   0.2030 (  1)  0.2382 (  2)  0.1175 (  3)  0.2382 (  6)  0.1175 (  8)
           0.2030 (  9) -0.1100 ( 13) -0.1100 ( 14)  0.1527 ( 16) -0.1969 ( 17)
           0.1527 ( 19) -0.1260 ( 20)  0.1111 ( 22) -0.4775 ( 23) -0.1553 ( 25)
           0.1235 ( 26) -0.1969 ( 28)  0.1111 ( 30) -0.1260 ( 31) -0.4775 ( 32)
          -0.1553 ( 33)  0.1235 ( 34)
 CRD 14=  -0.1434 (  1)  0.1806 (  3) -0.1040 (  4)  0.3753 (  7) -0.1806 (  8)
           0.1434 (  9)  0.1040 ( 10) -0.3753 ( 12) -0.1110 ( 15)  0.1889 ( 16)
           0.1785 ( 17) -0.1889 ( 19) -0.1234 ( 21)  0.3607 ( 23)  0.1234 ( 24)
          -0.1789 ( 25) -0.1105 ( 26)  0.1110 ( 27) -0.1785 ( 28) -0.3607 ( 32)
           0.1789 ( 33)  0.1105 ( 34)
 CRD 15=  -0.1622 ( 37) -0.3754 ( 38) -0.1622 ( 39)  0.2424 ( 41) -0.1757 ( 43)
           0.1373 ( 44) -0.1093 ( 45)  0.1373 ( 46) -0.2474 ( 47)  0.3391 ( 48)
          -0.3754 ( 51)  0.2424 ( 52) -0.1757 ( 53) -0.2474 ( 54) -0.1093 ( 55)
           0.3391 ( 56) -0.1420 ( 57) -0.1420 ( 60)
 CRD 16=   0.1281 (  1)  0.4585 (  3)  0.2095 (  4) -0.1732 (  7) -0.4585 (  8)
          -0.1281 (  9) -0.2095 ( 10)  0.1732 ( 12)  0.2499 ( 13) -0.2499 ( 14)
          -0.1960 ( 15) -0.1255 ( 18) -0.2118 ( 20)  0.1069 ( 26)  0.1960 ( 27)
           0.1255 ( 29)  0.2118 ( 31) -0.1069 ( 34)
 CRD 17=  -0.1649 (  1)  0.1591 (  2) -0.1746 (  4)  0.1392 (  5)  0.1591 (  6)
           0.1702 (  7) -0.1649 (  9) -0.1746 ( 10)  0.1391 ( 11)  0.1702 ( 12)
          -0.3880 ( 13) -0.3880 ( 14) -0.2586 ( 15)  0.1843 ( 18)  0.2106 ( 20)
          -0.1699 ( 22)  0.1309 ( 25) -0.2586 ( 27)  0.1843 ( 29) -0.1699 ( 30)
           0.2106 ( 31)  0.1309 ( 33)
 CRD 18=  -0.1110 (  1) -0.3913 (  4) -0.3642 (  7)  0.1110 (  9)  0.3913 ( 10)
           0.3642 ( 12)  0.1026 ( 20)  0.2071 ( 22)  0.2784 ( 23)  0.1906 ( 25)
          -0.2071 ( 30) -0.1026 ( 31) -0.2784 ( 32) -0.1906 ( 33)
 CRD 19=   0.2814 ( 35) -0.1281 ( 37)  0.2473 ( 38)  0.1282 ( 39)  0.1294 ( 40)
           0.2507 ( 41) -0.1294 ( 42) -0.1136 ( 43)  0.1286 ( 44) -0.1286 ( 46)
           0.3282 ( 47) -0.1127 ( 48) -0.2814 ( 50) -0.2473 ( 51) -0.2507 ( 52)
           0.1136 ( 53) -0.3281 ( 54)  0.1127 ( 56) -0.2022 ( 57)  0.2349 ( 58)
           0.2022 ( 60) -0.2349 ( 61)
 CRD 20=  -0.2369 (  1) -0.2540 (  3) -0.1141 (  4)  0.1611 (  5)  0.3722 (  7)
          -0.2540 (  8) -0.2369 (  9) -0.1141 ( 10)  0.1611 ( 11)  0.3722 ( 12)
           0.1205 ( 15)  0.1043 ( 16)  0.1043 ( 19) -0.2248 ( 20)  0.2656 ( 22)
          -0.1909 ( 25)  0.1205 ( 27)  0.2656 ( 30) -0.2248 ( 31) -0.1909 ( 33)
 CRD 21=  -0.4320 ( 35) -0.1567 ( 36) -0.1096 ( 37) -0.1096 ( 39) -0.1409 ( 41)
           0.2039 ( 43)  0.1293 ( 44)  0.1791 ( 45)  0.1293 ( 46) -0.3831 ( 47)
          -0.1567 ( 49) -0.4321 ( 50) -0.1410 ( 52)  0.2040 ( 53) -0.3831 ( 54)
           0.1791 ( 55)
 CRD 22=  -0.1858 (  2) -0.3892 (  3)  0.3238 (  4)  0.2652 (  5) -0.1858 (  6)
          -0.1224 (  7) -0.3893 (  8)  0.3238 ( 10)  0.2652 ( 11) -0.1224 ( 12)
          -0.1719 ( 13) -0.1719 ( 14) -0.1748 ( 23)  0.1398 ( 25) -0.1748 ( 32)
           0.1398 ( 33)
 CRD 23=   0.2102 (  3)  0.1449 (  5) -0.1397 (  7) -0.2102 (  8) -0.1450 ( 11)
           0.1397 ( 12) -0.5962 ( 13)  0.5962 ( 14)  0.1423 ( 23)  0.1035 ( 26)
          -0.1423 ( 32) -0.1035 ( 34)
 CRD 24=  -0.1622 (  7) -0.1622 ( 12) -0.4935 ( 13) -0.4935 ( 14)  0.1558 ( 15)
          -0.2001 ( 18)  0.2677 ( 23) -0.1465 ( 25)  0.1992 ( 26)  0.1558 ( 27)
          -0.2001 ( 29)  0.2677 ( 32) -0.1465 ( 33)  0.1992 ( 34)
 CRD 25=  -0.1924 (  1) -0.2361 (  2)  0.2887 (  3)  0.3898 (  4) -0.1704 (  5)
          -0.2361 (  6)  0.3320 (  7)  0.2887 (  8) -0.1924 (  9)  0.3898 ( 10)
          -0.1704 ( 11)  0.3320 ( 12) -0.1572 ( 13) -0.1573 ( 14)
 CRD 26=  -0.3046 (  1)  0.3599 (  2)  0.4084 (  5) -0.3599 (  6)  0.3046 (  9)
          -0.4084 ( 11) -0.1484 ( 15)  0.1282 ( 18) -0.1583 ( 20) -0.1289 ( 23)
           0.1484 ( 27) -0.1282 ( 29)  0.1583 ( 31)  0.1289 ( 32)
 CRD 27=   0.1560 ( 35) -0.2037 ( 36)  0.3314 ( 43)  0.2154 ( 45)  0.3327 ( 48)
           0.2037 ( 49) -0.1560 ( 50) -0.3314 ( 53) -0.2154 ( 55) -0.3327 ( 56)
          -0.2719 ( 57) -0.2619 ( 58)  0.1129 ( 59)  0.2719 ( 60)  0.2619 ( 61)
          -0.1129 ( 62)
 CRD 28=   0.3478 (  2) -0.1942 (  3) -0.2237 (  5) -0.3478 (  6)  0.2501 (  7)
           0.1942 (  8)  0.2237 ( 11) -0.2501 ( 12) -0.1234 ( 13)  0.1234 ( 14)
          -0.1056 ( 16) -0.2297 ( 18)  0.1056 ( 19) -0.1003 ( 20) -0.1004 ( 21)
           0.2384 ( 22)  0.1076 ( 23)  0.1004 ( 24)  0.1379 ( 25)  0.1661 ( 26)
           0.2297 ( 29) -0.2384 ( 30)  0.1003 ( 31) -0.1076 ( 32) -0.1379 ( 33)
          -0.1661 ( 34)
 CRD 29=   0.3675 (  1) -0.2549 (  3) -0.2213 (  4)  0.1715 (  5) -0.1042 (  7)
           0.2549 (  8) -0.3675 (  9)  0.2213 ( 10) -0.1715 ( 11)  0.1042 ( 12)
          -0.2462 ( 15) -0.1706 ( 20) -0.1477 ( 21)  0.1477 ( 24) -0.2326 ( 25)
           0.1126 ( 26)  0.2462 ( 27)  0.1706 ( 31)  0.2326 ( 33) -0.1126 ( 34)
 CRD 30=   0.2050 (  3) -0.3074 (  4)  0.2612 (  7) -0.2050 (  8)  0.3074 ( 10)
          -0.2612 ( 12) -0.2535 ( 16) -0.2633 ( 17)  0.2535 ( 19) -0.1570 ( 20)
           0.2232 ( 21) -0.1311 ( 22) -0.2232 ( 24)  0.1653 ( 26)  0.2633 ( 28)
           0.1311 ( 30)  0.1570 ( 31) -0.1653 ( 34)
 CRD 31=   0.2990 ( 35) -0.1865 ( 36) -0.2797 ( 38) -0.2851 ( 41) -0.1079 ( 43)
           0.1954 ( 45)  0.1375 ( 47) -0.1080 ( 48)  0.1865 ( 49) -0.2990 ( 50)
           0.2797 ( 51)  0.2851 ( 52)  0.1079 ( 53) -0.1375 ( 54) -0.1954 ( 55)
           0.1080 ( 56)  0.1242 ( 57) -0.2084 ( 58) -0.2724 ( 59) -0.1242 ( 60)
           0.2084 ( 61)  0.2724 ( 62)
 CRD 32=  -0.1968 (  1) -0.1674 (  2)  0.2323 (  3)  0.3624 (  5) -0.1674 (  6)
          -0.1224 (  7)  0.2323 (  8) -0.1968 (  9)  0.3624 ( 11) -0.1224 ( 12)
           0.2163 ( 15) -0.1313 ( 16) -0.1077 ( 17)  0.1950 ( 18) -0.1313 ( 19)
           0.2391 ( 21) -0.1089 ( 22)  0.2391 ( 24) -0.1302 ( 25)  0.2163 ( 27)
          -0.1077 ( 28)  0.1950 ( 29) -0.1089 ( 30) -0.1302 ( 33)
 CRD 33=  -0.3059 (  1)  0.3214 (  2)  0.2214 (  4)  0.3214 (  6) -0.1892 (  7)
          -0.3059 (  9)  0.2214 ( 10) -0.1892 ( 12) -0.1972 ( 16)  0.2116 ( 17)
          -0.1972 ( 19)  0.1933 ( 20)  0.1796 ( 22) -0.1652 ( 25) -0.1736 ( 26)
           0.2116 ( 28)  0.1796 ( 30)  0.1933 ( 31) -0.1652 ( 33) -0.1736 ( 34)
 CRD 34=   0.2715 ( 37) -0.1255 ( 38)  0.2715 ( 39) -0.2342 ( 40)  0.1699 ( 41)
          -0.2342 ( 42)  0.1862 ( 45)  0.1266 ( 47) -0.1911 ( 48) -0.1254 ( 51)
           0.1699 ( 52)  0.1266 ( 54)  0.1862 ( 55) -0.1911 ( 56) -0.3379 ( 57)
           0.3222 ( 58) -0.3379 ( 60)  0.3222 ( 61)
 CRD 35=   0.2701 ( 35)  0.1741 ( 36) -0.1047 ( 37) -0.1565 ( 38) -0.1047 ( 39)
          -0.1709 ( 40) -0.1181 ( 41) -0.1709 ( 42)  0.1778 ( 43)  0.2755 ( 44)
           0.2755 ( 46)  0.1741 ( 49)  0.2701 ( 50) -0.1565 ( 51) -0.1181 ( 52)
           0.1778 ( 53)  0.1222 ( 57)  0.2306 ( 58) -0.3691 ( 59)  0.1222 ( 60)
           0.2306 ( 61) -0.3691 ( 62)
 CRD 36=  -0.1787 ( 35) -0.3013 ( 37)  0.3013 ( 39)  0.3043 ( 40) -0.3043 ( 42)
           0.3023 ( 44) -0.3023 ( 46)  0.1787 ( 50)  0.2278 ( 57) -0.2522 ( 58)
           0.2537 ( 59) -0.2278 ( 60)  0.2522 ( 61) -0.2537 ( 62)

 THE DETERMINANT OF THE G MATRIX IS 10**(   -18)


                     --------------------
                     INTERNAL COORDINATES
                     --------------------

                 - - ATOMS - -         COORDINATE      COORDINATE
 NO.   TYPE    I  J  K  L  M  N        (BOHR,RAD)       (ANG,DEG)
 ----------------------------------------------------------------
   1 STRETCH   1  2                     2.6433328       1.3987916
   2 STRETCH   1  6                     2.6341711       1.3939434
   3 STRETCH   1  8                     2.0566958       1.0883566
   4 STRETCH   2  9                     2.5937040       1.3725291
   5 STRETCH   2  3                     2.6400037       1.3970299
   6 STRETCH   3  4                     2.6341737       1.3939448
   7 STRETCH   3 10                     2.0503810       1.0850150
   8 STRETCH   4 11                     2.0566963       1.0883569
   9 STRETCH   4  5                     2.6433293       1.3987897
  10 STRETCH   5 12                     2.5937064       1.3725304
  11 STRETCH   5  6                     2.6400016       1.3970288
  12 STRETCH   6  7                     2.0503815       1.0850152
  13 STRETCH   9 13                     1.8253380       0.9659273
  14 STRETCH  12 14                     1.8253380       0.9659274
  15 BEND      1  6  7                  2.1092222     120.8495322
  16 BEND      1  6  5                  2.0960411     120.0943108
  17 BEND      1  2  3                  2.0850040     119.4619317
  18 BEND      1  2  9                  2.1462603     122.9716583
  19 BEND      2  3  4                  2.0960378     120.0941174
  20 BEND      2  3 10                  2.0779258     119.0563812
  21 BEND      2  1  6                  2.1021410     120.4438087
  22 BEND      2  1  8                  2.0939424     119.9740605
  23 BEND      2  9 13                  1.9008308     108.9095850
  24 BEND      3  4  5                  2.1021435     120.4439523
  25 BEND      3  4 11                  2.0871015     119.5821082
  26 BEND      3  2  9                  2.0519209     117.5664097
  27 BEND      4  3 10                  2.1092217     120.8494999
  28 BEND      4  5  6                  2.0850030     119.4618696
  29 BEND      4  5 12                  2.1462653     122.9719430
  30 BEND      5  4 11                  2.0939403     119.9739394
  31 BEND      5  6  7                  2.0779219     119.0561569
  32 BEND      5 12 14                  1.9008377     108.9099783
  33 BEND      6  1  8                  2.0871019     119.5821287
  34 BEND      6  5 12                  2.0519171     117.5661869
  35 TORSION   1  2  9 13              -0.0026295      -0.1506620
  36 TORSION   1  6  5 12              -3.1410093    -179.9665761
  37 TORSION   1  6  5  4               0.0004496       0.0257622
  38 TORSION   1  2  3 10              -3.1413533    -179.9862887
  39 TORSION   1  2  3  4               0.0004809       0.0275564
  40 TORSION   2  1  6  5              -0.0000517      -0.0029633
  41 TORSION   2  1  6  7               3.1415298     179.9964001
  42 TORSION   2  3  4  5              -0.0000833      -0.0047752
  43 TORSION   2  3  4 11               3.1414280     179.9905641
  44 TORSION   3  4  5  6              -0.0003833      -0.0219595
  45 TORSION   3  4  5 12               3.1410681     179.9699447
  46 TORSION   3  2  1  6              -0.0004147      -0.0237601
  47 TORSION   3  2  9 13               3.1390741     179.8556956
  48 TORSION   3  2  1  8               3.1414723     179.9931033
  49 TORSION   4  3  2  9              -3.1412186    -179.9785694
  50 TORSION   4  5 12 14              -0.0003506      -0.0200856
  51 TORSION   4  5  6  7              -3.1411321    -179.9736125
  52 TORSION   5  4  3 10              -3.1414300    -179.9906781
  53 TORSION   5  6  1  8               3.1412478     179.9802392
  54 TORSION   6  5 12 14               3.1411033     179.9719628
  55 TORSION   6  1  2  9               3.1412909     179.9827128
  56 TORSION   6  5  4 11               3.1412911     179.9827194
  57 TORSION   7  6  5 12               0.0005943       0.0340491
  58 TORSION   7  6  1  8              -0.0003560      -0.0203974
  59 TORSION   8  1  2  9              -0.0000074      -0.0004239
  60 TORSION   9  2  3 10               0.0001324       0.0075855
  61 TORSION  10  3  4 11               0.0000814       0.0046612
  62 TORSION  11  4  5 12              -0.0004429      -0.0253764
1   ATOM  0
                                        -------------------
   COORD  0                             NUCLEAR COORDINATES
                                        -------------------
     VIB  0

                       ATOM             X              Y              Z

                 1  C               -5.582010       5.828343       0.964967
                 2  C               -2.973421       6.037440       0.592473
                 3  C               -1.527318       3.851230       0.278002
                 4  C               -2.681938       1.484277       0.335093
                 5  C               -5.290656       1.275223       0.706680
                 6  C               -6.736601       3.461383       1.022210
                 7  H               -8.758926       3.284732       1.310411
                 8  H               -6.723668       7.521163       1.211896
                 9  O               -1.736292       8.315884       0.518278
                10  H                0.495084       4.027850      -0.009673
                11  H               -1.540293      -0.208542       0.088094
                12  O               -6.528085      -1.003124       0.778908
                13  H               -2.951775       9.656958       0.754882
                14  H               -5.313445      -2.343948       0.536625

          ********************
          1 ELECTRON INTEGRALS
          ********************
 ...... END OF ONE-ELECTRON INTEGRALS ......
 CPU     0: STEP CPU TIME=     0.01 TOTAL CPU TIME=        0.0 (    0.0 MIN)
 TOTAL WALL CLOCK TIME=        0.2 SECONDS, CPU UTILIZATION IS  25.00%

          -------------
          GUESS OPTIONS
          -------------
          GUESS =HUCKEL            NORB  =       0          NORDER=       0
          MIX   =       F          PRTMO =       F          PUNMO =       F
          TOLZ  = 1.0E-08          TOLE  = 1.0E-05
          SYMDEN=       F          PURIFY=       F

 INITIAL GUESS ORBITALS GENERATED BY HUCKEL   ROUTINE.
 HUCKEL GUESS REQUIRES    182024 WORDS.

 SYMMETRIES FOR INITIAL GUESS ORBITALS FOLLOW.   BOTH SET(S).
    29 ORBITALS ARE OCCUPIED (    8 CORE ORBITALS).
     9=A       10=A       11=A       12=A       13=A       14=A       15=A   
    16=A       17=A       18=A       19=A       20=A       21=A       22=A   
    23=A       24=A       25=A       26=A       27=A       28=A       29=A   
    30=A       31=A       32=A       33=A       34=A       35=A       36=A   
    37=A       38=A       39=A   
 ...... END OF INITIAL ORBITAL SELECTION ......
 CPU     0: STEP CPU TIME=     0.07 TOTAL CPU TIME=        0.1 (    0.0 MIN)
 TOTAL WALL CLOCK TIME=        0.3 SECONDS, CPU UTILIZATION IS  32.35%

                    ----------------------
                    AO INTEGRAL TECHNOLOGY
                    ----------------------
     S,P,L SHELL ROTATED AXIS INTEGRALS, REPROGRAMMED BY
        KAZUYA ISHIMURA (IMS) AND JOSE SIERRA (SYNSTAR).
     S,P,D,L SHELL ROTATED AXIS INTEGRALS PROGRAMMED BY
        KAZUYA ISHIMURA (INSTITUTE FOR MOLECULAR SCIENCE).
     S,P,D,F,G SHELL TO TOTAL QUARTET ANGULAR MOMENTUM SUM 5,
        ERIC PROGRAM BY GRAHAM FLETCHER (ELORET AND NASA ADVANCED
        SUPERCOMPUTING DIVISION, AMES RESEARCH CENTER).
     S,P,D,F,G,L SHELL GENERAL RYS QUADRATURE PROGRAMMED BY
        MICHEL DUPUIS (PACIFIC NORTHWEST NATIONAL LABORATORY).

          --------------------
          2 ELECTRON INTEGRALS
          --------------------

 DIRECT SCF METHOD SKIPS INTEGRAL STORAGE ON DISK.
 DIRECT TRANSFORMATION SKIPS AO INTEGRAL STORAGE ON DISK.
  ...... END OF TWO-ELECTRON INTEGRALS .....
 CPU     0: STEP CPU TIME=     0.00 TOTAL CPU TIME=        0.1 (    0.0 MIN)
 TOTAL WALL CLOCK TIME=        0.4 SECONDS, CPU UTILIZATION IS  30.56%

          --------------------------
             R-B3LYP SCF CALCULATION
          --------------------------

     NUCLEAR ENERGY =       343.9152156872
     MAXIT =   30     NPUNCH=    2
     EXTRAP=T  DAMP=T  SHIFT=F  RSTRCT=F  DIIS=T  DEM=F  SOSCF=F
         DENSITY MATRIX CONVERGENCE THRESHOLD=  2.00E-05
     COARSE -> FINE DFT GRID SWITCH THRESHOLD=  3.00E-04 (SWITCH IN $DFT)
                   HF -> DFT SWITCH THRESHOLD=  5.00E-03 (SWOFF IN $DFT)
     MEMORY REQUIRED FOR RHF ITERS=    688325 WORDS.

 DIRECT SCF CALCULATION, SCHWRZ=T   FDIFF=F,  DIRTHR=  0.00E+00 NITDIR=10
 SCHWARZ INEQUALITY OVERHEAD:     10909 INTEGRALS, T=        0.01

     EXCHANGE FUNCTIONAL   =B88&HFX   
     CORRELATION FUNCTIONAL=LYP88&VWN5
     DFT THRESHOLD         =.246E-08
 FOR AN EULER-MACLAURIN QUADRATURE USING  96 RADIAL POINTS:
 SMALLEST GAUSSIAN PRIMITIVE EXPONENT=        0.1612777588 OF TYPE -S-
 ON ATOM NUMBER   7 HAS RADIAL NORMALIZATION=  1.000000
  LARGEST GAUSSIAN PRIMITIVE EXPONENT=     5484.6716600000 OF TYPE -S-
 ON ATOM NUMBER   9 HAS RADIAL NORMALIZATION=  1.000000
 DFT IS SWITCHED OFF, PERFORMING PURE SCF UNTIL SWOFF THRESHOLD IS REACHED.

                                                                                                                   NONZERO     BLOCKS
 ITER EX DEM     TOTAL ENERGY        E CHANGE  DENSITY CHANGE    DIIS ERROR      VIR. SHIFT       DAMPING        INTEGRALS    SKIPPED
   1  0  0     -379.3789812930  -379.3789812930   0.184669924   0.813815325     0.000000000     1.000000000       43249330     293841
          * * *   INITIATING DIIS PROCEDURE   * * *
   2  1  0     -380.3710794153    -0.9920981223   0.071480274   0.071368408     0.000000000     1.000000000       43248859     295162
   3  2  0     -380.4198897639    -0.0488103486   0.024235388   0.020433919     0.000000000     1.000000000       43259488     294511
   4  3  0     -380.4260466628    -0.0061568989   0.010101526   0.008982356     0.000000000     1.000000000       43260624     294542
   5  4  0     -380.4270548687    -0.0010082058   0.003774058   0.001917267     0.000000000     1.000000000       43261868     294507
 CONVERGED TO SWOFF, SO DFT CALCULATION IS NOW SWITCHED ON.
          * * *   INITIATING DIIS PROCEDURE   * * *
   6  5  0     -382.4395999386    -2.0125450700   0.118309167   0.117123165       43261974     294501
   7  6  0     -382.4763157565    -0.0367158179   0.037339300   0.020308800       43280324     292171
   8  7  0     -382.4763277158    -0.0000119592   0.016647650   0.019364090       43282763     291714
   9  8  0     -382.4806679249    -0.0043402091   0.005000373   0.004751659       43281799     291812
  10  9  0     -382.4808091175    -0.0001411926   0.000752296   0.000657837       43281902     291823
  11 10  0     -382.4808135977    -0.0000044802   0.000226383   0.000151056       43281747     291819
  12 11  0     -382.4808137950    -0.0000001973   0.000091793   0.000102084       43281735     291821
  13 12  0     -382.4808138767    -0.0000000817   0.000005377   0.000007064       43281735     291821
  14 13  0     -382.4808138774    -0.0000000007   0.000001230   0.000000888       43281735     291821

          -----------------
          DENSITY CONVERGED
          -----------------
     TIME TO FORM FOCK OPERATORS=      18.5 SECONDS (       1.3 SEC/ITER)
     FOCK TIME ON FIRST ITERATION=       0.0, LAST ITERATION=       2.1
     TIME TO SOLVE SCF EQUATIONS=       0.5 SECONDS (       0.0 SEC/ITER)

 FINAL R-B3LYP ENERGY IS     -382.4808138774 AFTER  14 ITERATIONS
 DFT EXCHANGE + CORRELATION ENERGY =       -41.8471401797
 TOTAL ELECTRON NUMBER             =        58.0004007027

          ------------
          EIGENVECTORS
          ------------

                      1          2          3          4          5
                  -19.1688   -19.1688   -10.2382   -10.2382   -10.1871
                     A          A          A          A          A   
    1  C  1  S   -0.000009   0.000029   0.003466   0.003502   0.744444
    2  C  1  S   -0.000125   0.000204  -0.000571  -0.000285   0.037476
    3  C  1  X    0.000034  -0.000041  -0.000209  -0.000178   0.000111
    4  C  1  Y   -0.000002  -0.000079  -0.000028   0.000104  -0.000065
    5  C  1  Z   -0.000005   0.000002   0.000029   0.000031  -0.000020
    6  C  1  S    0.002745  -0.001789   0.014671   0.003752  -0.016470
    7  C  1  X    0.000750  -0.000264   0.004909   0.002332  -0.002871
    8  C  1  Y   -0.001467   0.001381  -0.006592  -0.001321   0.003967
    9  C  1  Z   -0.000179   0.000104  -0.001030  -0.000404   0.000609
   10  C  1 XX    0.000063  -0.000029  -0.000310  -0.000298  -0.006862
   11  C  1 YY    0.000067  -0.000054  -0.000263  -0.000177  -0.006856
   12  C  1 ZZ   -0.000007   0.000069  -0.000267  -0.000217  -0.007088
   13  C  1 XY    0.000011  -0.000005  -0.000097  -0.000060  -0.000023
   14  C  1 XZ   -0.000012   0.000017   0.000003   0.000011  -0.000040
   15  C  1 YZ    0.000003  -0.000006   0.000014   0.000011   0.000016
   16  C  2  S    0.000045  -0.000023   0.707782   0.696396  -0.003870
   17  C  2  S   -0.000025   0.000171   0.035497   0.034345  -0.000711
   18  C  2  X   -0.000185   0.000183   0.000245   0.000269   0.000272
   19  C  2  Y   -0.000227   0.000268   0.000512   0.000554   0.000000
   20  C  2  Z    0.000016  -0.000014  -0.000012  -0.000013  -0.000040
   21  C  2  S   -0.000679  -0.000712  -0.018382  -0.009731   0.009003
   22  C  2  X    0.002006  -0.001558   0.005324   0.002606  -0.003134
   23  C  2  Y    0.002820  -0.002245   0.009893   0.004215  -0.003132
   24  C  2  Z   -0.000161   0.000122  -0.000316  -0.000184   0.000312
   25  C  2 XX   -0.000009   0.000015  -0.006286  -0.006220  -0.000340
   26  C  2 YY    0.000060  -0.000031  -0.005992  -0.006002  -0.000214
   27  C  2 ZZ    0.000082  -0.000036  -0.006547  -0.006652  -0.000148
   28  C  2 XY    0.000000   0.000042   0.000267   0.000198   0.000031
   29  C  2 XZ    0.000016  -0.000007  -0.000032  -0.000065   0.000035
   30  C  2 YZ   -0.000001  -0.000006  -0.000009   0.000007  -0.000008
   31  C  3  S   -0.000011   0.000000   0.003226   0.003269  -0.041856
   32  C  3  S   -0.000141   0.000055  -0.000573  -0.000265  -0.001639
   33  C  3  X   -0.000026  -0.000022   0.000100   0.000179  -0.000091
   34  C  3  Y   -0.000067  -0.000016  -0.000188  -0.000068  -0.000206
   35  C  3  Z    0.000001   0.000002  -0.000024  -0.000029   0.000003
   36  C  3  S    0.002230   0.000591   0.014029   0.003182  -0.007696
   37  C  3  X   -0.001636   0.000512  -0.008158  -0.002145   0.004014
   38  C  3  Y   -0.000521  -0.000330  -0.000504   0.000503   0.001464
   39  C  3  Z    0.000215  -0.000090   0.001170   0.000338  -0.000518
   40  C  3 XX    0.000050  -0.000038  -0.000179  -0.000159   0.000629
   41  C  3 YY    0.000078  -0.000017  -0.000378  -0.000306   0.000722
   42  C  3 ZZ   -0.000016   0.000012  -0.000262  -0.000204   0.000559
   43  C  3 XY    0.000010   0.000020   0.000001   0.000038   0.000007
   44  C  3 XZ   -0.000011   0.000010  -0.000014  -0.000006  -0.000012
   45  C  3 YZ    0.000004  -0.000005  -0.000006  -0.000011   0.000008
   46  C  4  S    0.000015   0.000026  -0.003409   0.003557  -0.653809
   47  C  4  S    0.000162   0.000177   0.000566  -0.000295  -0.032945
   48  C  4  X    0.000041   0.000033  -0.000207   0.000181   0.000100
   49  C  4  Y    0.000013   0.000077  -0.000030  -0.000104  -0.000063
   50  C  4  Z   -0.000005  -0.000001   0.000029  -0.000031  -0.000018
   51  C  4  S   -0.003039  -0.001227  -0.014609   0.003989   0.014957
   52  C  4  X    0.000786   0.000115   0.004871  -0.002411  -0.002598
   53  C  4  Y   -0.001706  -0.001072  -0.006570   0.001427   0.003803
   54  C  4  Z   -0.000196  -0.000068  -0.001024   0.000420   0.000560
   55  C  4 XX   -0.000068  -0.000017   0.000306  -0.000303   0.006027
   56  C  4 YY   -0.000076  -0.000040   0.000260  -0.000181   0.006021
   57  C  4 ZZ    0.000021   0.000067   0.000263  -0.000222   0.006213
   58  C  4 XY   -0.000012  -0.000003   0.000096  -0.000061   0.000021
   59  C  4 XZ    0.000015   0.000014  -0.000002   0.000011   0.000033
   60  C  4 YZ   -0.000004  -0.000006  -0.000014   0.000011  -0.000014
   61  C  5  S   -0.000049  -0.000014  -0.696518   0.707662   0.003345
   62  C  5  S    0.000058   0.000163  -0.034941   0.034910   0.000634
   63  C  5  X   -0.000217  -0.000144   0.000241  -0.000273   0.000242
   64  C  5  Y   -0.000274  -0.000219   0.000503  -0.000562  -0.000006
   65  C  5  Z    0.000019   0.000011  -0.000011   0.000013  -0.000036
   66  C  5  S    0.000528  -0.000828   0.018223  -0.010027  -0.008549
   67  C  5  X    0.002269   0.001141   0.005283  -0.002693  -0.002744
   68  C  5  Y    0.003201   0.001659   0.009823  -0.004374  -0.003100
   69  C  5  Z   -0.000180  -0.000088  -0.000306   0.000186   0.000254
   70  C  5 XX    0.000012   0.000013   0.006185  -0.006320   0.000300
   71  C  5 YY   -0.000065  -0.000019   0.005895  -0.006098   0.000195
   72  C  5 ZZ   -0.000087  -0.000020   0.006439  -0.006756   0.000135
   73  C  5 XY    0.000008   0.000042  -0.000263   0.000203  -0.000031
   74  C  5 XZ   -0.000017  -0.000004   0.000031  -0.000065  -0.000030
   75  C  5 YZ    0.000000  -0.000006   0.000008   0.000007   0.000008
   76  C  6  S    0.000011  -0.000002  -0.003173   0.003321   0.047571
   77  C  6  S    0.000149   0.000027   0.000569  -0.000274   0.001867
   78  C  6  X   -0.000021   0.000026   0.000098  -0.000181  -0.000108
   79  C  6  Y   -0.000063   0.000029  -0.000187   0.000071  -0.000229
   80  C  6  Z    0.000000  -0.000003  -0.000023   0.000030   0.000005
   81  C  6  S   -0.002074   0.001009  -0.013976   0.003408   0.008144
   82  C  6  X   -0.001704  -0.000187  -0.008122   0.002277   0.004199
   83  C  6  Y   -0.000447   0.000424  -0.000513  -0.000495   0.001491
   84  C  6  Z    0.000228   0.000048   0.001165  -0.000357  -0.000545
   85  C  6 XX   -0.000057  -0.000028   0.000176  -0.000162  -0.000704
   86  C  6 YY   -0.000079  -0.000002   0.000373  -0.000312  -0.000806
   87  C  6 ZZ    0.000018   0.000008   0.000258  -0.000208  -0.000633
   88  C  6 XY   -0.000006   0.000022   0.000000   0.000038  -0.000018
   89  C  6 XZ    0.000013   0.000007   0.000014  -0.000006   0.000011
   90  C  6 YZ   -0.000005  -0.000004   0.000006  -0.000011  -0.000007
   91  H  7  S   -0.000022  -0.000002  -0.000217   0.000069   0.000075
   92  H  7  S   -0.000590  -0.000288  -0.001912   0.000792   0.000922
   93  H  7  X    0.000002  -0.000014  -0.000017   0.000066   0.000034
   94  H  7  Y   -0.000022  -0.000045   0.000022   0.000025   0.000010
   95  H  7  Z   -0.000001   0.000000   0.000004  -0.000008  -0.000005
   96  H  8  S    0.000066  -0.000065   0.000193   0.000068  -0.000460
   97  H  8  S    0.000287  -0.000270   0.001927   0.000873   0.000265
   98  H  8  X   -0.000028   0.000011   0.000031   0.000014  -0.000103
   99  H  8  Y    0.000011  -0.000013  -0.000005  -0.000076   0.000157
  100  H  8  Z    0.000005  -0.000002  -0.000005  -0.000006   0.000022
  101  O  9  S   -0.630482   0.766771   0.000138   0.000062  -0.000010
  102  O  9  S   -0.016221   0.019837   0.000949   0.000588  -0.000085
  103  O  9  X    0.000671  -0.000831   0.000014   0.000027  -0.000005
  104  O  9  Y   -0.000030   0.000032  -0.000013   0.000003  -0.000004
  105  O  9  Z   -0.000098   0.000121  -0.000003  -0.000004   0.000001
  106  O  9  S   -0.009312   0.010591  -0.005555  -0.002994   0.000639
  107  O  9  X    0.000342  -0.000290   0.001093   0.000778   0.000049
  108  O  9  Y    0.000793  -0.000774   0.002058   0.001520  -0.000089
  109  O  9  Z   -0.000013   0.000006  -0.000063  -0.000042  -0.000011
  110  O  9 XX    0.005233  -0.006302   0.000380   0.000176   0.000013
  111  O  9 YY    0.005189  -0.006260  -0.000039  -0.000227  -0.000015
  112  O  9 ZZ    0.005254  -0.006324   0.000702   0.000501  -0.000037
  113  O  9 XY    0.000020  -0.000045  -0.000389  -0.000356   0.000018
  114  O  9 XZ    0.000004  -0.000006   0.000037   0.000039  -0.000008
  115  O  9 YZ   -0.000006   0.000010   0.000017   0.000012  -0.000001
  116  H 10  S    0.000021  -0.000006   0.000218   0.000065  -0.000076
  117  H 10  S    0.000523  -0.000396   0.001924   0.000761  -0.000868
  118  H 10  X    0.000005   0.000013  -0.000018  -0.000066   0.000028
  119  H 10  Y   -0.000013   0.000048   0.000022  -0.000025   0.000010
  120  H 10  Z   -0.000001   0.000000   0.000004   0.000008  -0.000004
  121  H 11  S   -0.000077  -0.000051  -0.000192   0.000071   0.000414
  122  H 11  S   -0.000334  -0.000210  -0.001913   0.000904  -0.000157
  123  H 11  X   -0.000030  -0.000005   0.000031  -0.000014  -0.000092
  124  H 11  Y    0.000014   0.000011  -0.000004   0.000077   0.000135
  125  H 11  Z    0.000005   0.000001  -0.000005   0.000006   0.000020
  126  O 12  S    0.766753   0.630505  -0.000137   0.000064   0.000007
  127  O 12  S    0.019748   0.016329  -0.000939   0.000604   0.000068
  128  O 12  X    0.000819   0.000685   0.000013  -0.000027  -0.000002
  129  O 12  Y   -0.000036  -0.000026  -0.000013  -0.000003  -0.000007
  130  O 12  Z   -0.000122  -0.000102  -0.000003   0.000004   0.000000
  131  O 12  S    0.011182   0.008592   0.005506  -0.003083  -0.000566
  132  O 12  X    0.000391   0.000219   0.001081  -0.000796   0.000017
  133  O 12  Y    0.000928   0.000607   0.002033  -0.001553  -0.000036
  134  O 12  Z   -0.000013  -0.000003  -0.000061   0.000042  -0.000004
  135  O 12 XX   -0.006352  -0.005172  -0.000377   0.000182  -0.000023
  136  O 12 YY   -0.006300  -0.005139   0.000036  -0.000227   0.000016
  137  O 12 ZZ   -0.006377  -0.005190  -0.000694   0.000512   0.000025
  138  O 12 XY   -0.000028  -0.000040   0.000383  -0.000362  -0.000014
  139  O 12 XZ   -0.000006  -0.000005  -0.000036   0.000039   0.000008
  140  O 12 YZ    0.000008   0.000009  -0.000016   0.000012   0.000001
  141  H 13  S   -0.000162   0.000222   0.000144   0.000116   0.000000
  142  H 13  S    0.000685  -0.000909  -0.000270  -0.000147   0.000091
  143  H 13  X    0.000044  -0.000057  -0.000080  -0.000072  -0.000008
  144  H 13  Y   -0.000115   0.000150  -0.000085  -0.000101  -0.000014
  145  H 13  Z   -0.000012   0.000015   0.000008   0.000006   0.000000
  146  H 14  S    0.000202   0.000186  -0.000142   0.000118   0.000008
  147  H 14  S   -0.000848  -0.000759   0.000267  -0.000151  -0.000077
  148  H 14  X    0.000054   0.000047  -0.000079   0.000073  -0.000011
  149  H 14  Y   -0.000142  -0.000125  -0.000084   0.000102  -0.000012
  150  H 14  Z   -0.000015  -0.000013   0.000008  -0.000006   0.000001

                      6          7          8          9         10
                  -10.1871   -10.1828   -10.1828    -1.0486    -1.0477
                     A          A          A          A          A   
    1  C  1  S    0.653794   0.043528  -0.046203  -0.014087   0.009818
    2  C  1  S    0.032667   0.002675  -0.002777   0.029032  -0.020202
    3  C  1  X    0.000077  -0.000096   0.000058   0.016223  -0.015821
    4  C  1  Y   -0.000013  -0.000225   0.000243   0.001592  -0.008794
    5  C  1  Z   -0.000012   0.000003   0.000003  -0.002306   0.001906
    6  C  1  S   -0.010642  -0.009924   0.005219  -0.006627   0.052959
    7  C  1  X   -0.001924  -0.001759   0.000762  -0.012534   0.004621
    8  C  1  Y    0.001012   0.004540  -0.001746   0.019242  -0.037516
    9  C  1  Z    0.000330   0.000473  -0.000194   0.002744  -0.002445
   10  C  1 XX   -0.006026  -0.000097   0.000266   0.002835  -0.002882
   11  C  1 YY   -0.006027  -0.000084   0.000126  -0.000268   0.001249
   12  C  1 ZZ   -0.006317  -0.000246   0.000287  -0.001095   0.000946
   13  C  1 XY   -0.000012   0.000053  -0.000077   0.001913  -0.002035
   14  C  1 XZ   -0.000051  -0.000023   0.000000  -0.000586   0.000562
   15  C  1 YZ    0.000018   0.000001   0.000002  -0.000232   0.000312
   16  C  2  S   -0.003819  -0.003972  -0.003209  -0.058707   0.056836
   17  C  2  S   -0.000554  -0.000765  -0.000486   0.109927  -0.103881
   18  C  2  X    0.000218  -0.000137  -0.000131   0.032669  -0.034863
   19  C  2  Y    0.000047   0.000211   0.000205   0.070352  -0.074493
   20  C  2  Z   -0.000030   0.000030   0.000029  -0.001493   0.001619
   21  C  2  S    0.002938   0.010148   0.002769   0.034193  -0.045583
   22  C  2  X   -0.002807  -0.001034   0.001711  -0.035616   0.041379
   23  C  2  Y   -0.000046  -0.004626  -0.001999  -0.030397   0.052246
   24  C  2  Z    0.000409  -0.000066  -0.000345   0.003780  -0.003598
   25  C  2 XX   -0.000287  -0.000334  -0.000173  -0.003724   0.004121
   26  C  2 YY   -0.000137  -0.000280  -0.000203   0.009698  -0.009163
   27  C  2 ZZ   -0.000096  -0.000165  -0.000089  -0.009446   0.009650
   28  C  2 XY    0.000002   0.000075   0.000077   0.008875  -0.008505
   29  C  2 XZ    0.000033   0.000033   0.000018  -0.000561   0.000546
   30  C  2 YZ   -0.000003  -0.000018  -0.000018  -0.000264   0.000228
   31  C  3  S    0.047089   0.725386   0.674918  -0.013593   0.008955
   32  C  3  S    0.001872   0.036599   0.033785   0.026029  -0.018346
   33  C  3  X    0.000139  -0.000216  -0.000151  -0.008871   0.003041
   34  C  3  Y    0.000193  -0.000021  -0.000002   0.012985  -0.017967
   35  C  3  Z   -0.000011   0.000031   0.000022   0.001906  -0.001289
   36  C  3  S    0.003956  -0.017162  -0.011405   0.022953   0.036142
   37  C  3  X   -0.001689   0.005433   0.002213   0.009412  -0.030089
   38  C  3  Y   -0.000306   0.000456  -0.000543   0.012358  -0.026139
   39  C  3  Z    0.000233  -0.000773  -0.000349  -0.000791   0.003171
   40  C  3 XX   -0.000620  -0.006644  -0.006209  -0.000870   0.001614
   41  C  3 YY   -0.000697  -0.006647  -0.006194   0.003808  -0.003186
   42  C  3 ZZ   -0.000613  -0.006886  -0.006511  -0.001334   0.000832
   43  C  3 XY   -0.000086   0.000010   0.000017  -0.001003   0.001888
   44  C  3 XZ   -0.000003  -0.000041  -0.000051  -0.000131  -0.000041
   45  C  3 YZ    0.000008   0.000012   0.000015   0.000428  -0.000495
   46  C  4  S    0.744429  -0.046753  -0.042964  -0.014081  -0.009826
   47  C  4  S    0.037232  -0.002869  -0.002578   0.029020   0.020218
   48  C  4  X   -0.000091  -0.000100  -0.000051  -0.016216  -0.015831
   49  C  4  Y    0.000021  -0.000242  -0.000226  -0.001587  -0.008794
   50  C  4  Z    0.000014   0.000003  -0.000003   0.002294   0.001897
   51  C  4  S   -0.012681   0.010275   0.004490  -0.006585  -0.052967
   52  C  4  X    0.002280  -0.001809  -0.000634   0.012531   0.004631
   53  C  4  Y   -0.001515   0.004655   0.001413  -0.019210  -0.037525
   54  C  4  Z   -0.000405   0.000484   0.000159  -0.002746  -0.002458
   55  C  4 XX   -0.006862   0.000116   0.000259   0.002834   0.002885
   56  C  4 YY   -0.006862   0.000093   0.000119  -0.000267  -0.001249
   57  C  4 ZZ   -0.007179   0.000266   0.000268  -0.001096  -0.000947
   58  C  4 XY   -0.000015  -0.000059  -0.000073   0.001912   0.002036
   59  C  4 XZ   -0.000056   0.000023  -0.000002  -0.000583  -0.000559
   60  C  4 YZ    0.000020  -0.000001   0.000003  -0.000231  -0.000311
   61  C  5  S   -0.004287   0.003731  -0.003487  -0.058676  -0.056867
   62  C  5  S   -0.000641   0.000728  -0.000540   0.109871   0.103939
   63  C  5  X   -0.000251  -0.000127   0.000141  -0.032661  -0.034892
   64  C  5  Y   -0.000046   0.000195  -0.000219  -0.070308  -0.074527
   65  C  5  Z    0.000034   0.000028  -0.000031   0.001419   0.001545
   66  C  5  S    0.004077  -0.009923   0.003493   0.034161   0.045603
   67  C  5  X    0.003190  -0.001154  -0.001632   0.035594   0.041411
   68  C  5  Y    0.000450  -0.004471   0.002328   0.030356   0.052261
   69  C  5  Z   -0.000445  -0.000043   0.000349  -0.003760  -0.003570
   70  C  5 XX   -0.000328   0.000321  -0.000197  -0.003719  -0.004121
   71  C  5 YY   -0.000164   0.000265  -0.000223   0.009691   0.009166
   72  C  5 ZZ   -0.000114   0.000158  -0.000101  -0.009441  -0.009655
   73  C  5 XY    0.000006  -0.000069   0.000082   0.008874   0.008513
   74  C  5 XZ    0.000037  -0.000032   0.000021  -0.000553  -0.000539
   75  C  5 YZ   -0.000004   0.000016  -0.000019  -0.000240  -0.000204
   76  C  6  S    0.041279  -0.674939   0.725368  -0.013588  -0.008963
   77  C  6  S    0.001644  -0.034073   0.036331   0.026019   0.018360
   78  C  6  X   -0.000127  -0.000204   0.000166   0.008867   0.003045
   79  C  6  Y   -0.000165  -0.000021   0.000004  -0.012975  -0.017974
   80  C  6  Z    0.000011   0.000029  -0.000024  -0.001918  -0.001300
   81  C  6  S    0.002930   0.016296  -0.012613   0.022992  -0.036128
   82  C  6  X    0.001156   0.005259  -0.002599  -0.009388  -0.030096
   83  C  6  Y    0.000115   0.000493   0.000509  -0.012340  -0.026150
   84  C  6  Z   -0.000164  -0.000748   0.000405   0.000788   0.003166
   85  C  6 XX   -0.000534   0.006180  -0.006671  -0.000869  -0.001615
   86  C  6 YY   -0.000598   0.006184  -0.006657   0.003806   0.003188
   87  C  6 ZZ   -0.000536   0.006400  -0.006989  -0.001333  -0.000832
   88  C  6 XY   -0.000085  -0.000009   0.000017  -0.001001  -0.001888
   89  C  6 XZ   -0.000004   0.000038  -0.000054  -0.000133   0.000040
   90  C  6 YZ    0.000009  -0.000011   0.000016   0.000431   0.000498
   91  H  7  S   -0.000019   0.000434  -0.000366   0.004015   0.003314
   92  H  7  S    0.000356  -0.000050   0.000831  -0.005057  -0.007090
   93  H  7  X    0.000049   0.000152  -0.000168   0.000704   0.000962
   94  H  7  Y   -0.000001   0.000011  -0.000027  -0.000329  -0.000021
   95  H  7  Z   -0.000007  -0.000022   0.000023  -0.000119  -0.000142
   96  H  8  S   -0.000331  -0.000122   0.000038   0.004455  -0.004143
   97  H  8  S    0.000820  -0.000850   0.000308  -0.007494   0.006177
   98  H  8  X   -0.000074  -0.000025   0.000045   0.000781  -0.000689
   99  H  8  Y    0.000156   0.000052  -0.000058  -0.000304   0.000679
  100  H  8  Z    0.000018   0.000006  -0.000009  -0.000129   0.000133
  101  O  9  S   -0.000022  -0.000002  -0.000007  -0.143096   0.144470
  102  O  9  S   -0.000124  -0.000064  -0.000076   0.310756  -0.311437
  103  O  9  X   -0.000020  -0.000018   0.000020  -0.077865   0.078190
  104  O  9  Y    0.000025  -0.000007   0.000004  -0.021010   0.020634
  105  O  9  Z    0.000004   0.000002  -0.000003   0.010271  -0.010335
  106  O  9  S    0.000523   0.000539   0.000194   0.323671  -0.338458
  107  O  9  X    0.000247  -0.000017  -0.000289  -0.034014   0.036906
  108  O  9  Y   -0.000405   0.000004   0.000010  -0.028706   0.031139
  109  O  9  Z   -0.000055   0.000003   0.000043   0.003588  -0.003896
  110  O  9 XX   -0.000079   0.000008   0.000026  -0.000810   0.001506
  111  O  9 YY    0.000009   0.000060   0.000031   0.002636  -0.001949
  112  O  9 ZZ   -0.000088  -0.000012  -0.000056  -0.008742   0.009565
  113  O  9 XY    0.000031  -0.000027   0.000020   0.004556  -0.004745
  114  O  9 XZ    0.000000  -0.000005  -0.000013  -0.001136   0.001148
  115  O  9 YZ    0.000001   0.000008   0.000002  -0.000048   0.000069
  116  H 10  S   -0.000010  -0.000459  -0.000333   0.004017  -0.003312
  117  H 10  S    0.000472   0.000110   0.000825  -0.005062   0.007087
  118  H 10  X   -0.000053   0.000163   0.000156  -0.000705   0.000962
  119  H 10  Y    0.000000   0.000013   0.000026   0.000329  -0.000021
  120  H 10  Z    0.000008  -0.000023  -0.000022   0.000118  -0.000142
  121  H 11  S   -0.000387   0.000124   0.000029   0.004454   0.004146
  122  H 11  S    0.000848   0.000870   0.000246  -0.007488  -0.006181
  123  H 11  X    0.000087  -0.000028  -0.000043  -0.000781  -0.000690
  124  H 11  Y   -0.000175   0.000056   0.000054   0.000304   0.000679
  125  H 11  Z   -0.000021   0.000007   0.000009   0.000129   0.000133
  126  O 12  S   -0.000023   0.000001  -0.000007  -0.143018  -0.144547
  127  O 12  S   -0.000134   0.000058  -0.000081   0.310590   0.311603
  128  O 12  X    0.000020  -0.000019  -0.000018   0.077803   0.078212
  129  O 12  Y   -0.000024  -0.000008  -0.000003   0.021004   0.020650
  130  O 12  Z   -0.000004   0.000002   0.000003  -0.010396  -0.010473
  131  O 12  S    0.000602  -0.000524   0.000233   0.323483   0.338634
  132  O 12  X   -0.000251   0.000004   0.000290   0.033990   0.036921
  133  O 12  Y    0.000413   0.000003  -0.000010   0.028689   0.031156
  134  O 12  Z    0.000057   0.000000  -0.000043  -0.003606  -0.003915
  135  O 12 XX   -0.000077  -0.000006   0.000027  -0.000811  -0.001510
  136  O 12 YY    0.000007  -0.000057   0.000035   0.002634   0.001949
  137  O 12 ZZ   -0.000092   0.000008  -0.000057  -0.008732  -0.009566
  138  O 12 XY    0.000033   0.000029   0.000018   0.004557   0.004751
  139  O 12 XZ   -0.000001   0.000004  -0.000014  -0.001146  -0.001160
  140  O 12 YZ    0.000001  -0.000008   0.000003  -0.000031  -0.000051
  141  H 13  S    0.000063  -0.000006  -0.000054   0.096667  -0.097155
  142  H 13  S    0.000100   0.000099   0.000158   0.011522  -0.011901
  143  H 13  X    0.000027  -0.000041  -0.000044   0.009633  -0.009715
  144  H 13  Y   -0.000017  -0.000003  -0.000020  -0.013089   0.013181
  145  H 13  Z   -0.000005   0.000006   0.000005  -0.001987   0.002003
  146  H 14  S    0.000063   0.000002  -0.000054   0.096615   0.097207
  147  H 14  S    0.000111  -0.000087   0.000165   0.011515   0.011908
  148  H 14  X   -0.000025  -0.000038   0.000046  -0.009620  -0.009712
  149  H 14  Y    0.000018  -0.000002   0.000020   0.013080   0.013186
  150  H 14  Z    0.000005   0.000005  -0.000006   0.002037   0.002055

                     11         12         13         14         15
                   -0.8403    -0.7454    -0.7243    -0.6302    -0.5947
                     A          A          A          A          A   
    1  C  1  S   -0.094392   0.106686   0.078629   0.088820   0.008961
    2  C  1  S    0.180743  -0.209630  -0.155474  -0.179641  -0.019515
    3  C  1  X    0.030221   0.037963  -0.081945   0.006019  -0.161221
    4  C  1  Y   -0.057244   0.048350  -0.036781  -0.047833  -0.106168
    5  C  1  Z   -0.007141  -0.003260   0.010274  -0.003114   0.018607
    6  C  1  S    0.110153  -0.154996  -0.116454  -0.142202  -0.009480
    7  C  1  X    0.003211   0.002428  -0.003465  -0.006338  -0.042599
    8  C  1  Y   -0.003355  -0.002998  -0.010244  -0.043314  -0.038953
    9  C  1  Z   -0.000639  -0.000487   0.000029  -0.001097   0.004407
   10  C  1 XX    0.001220   0.004354  -0.006353   0.003449  -0.006880
   11  C  1 YY    0.001634  -0.003603   0.008443   0.004030   0.007945
   12  C  1 ZZ   -0.010416   0.010618   0.007367   0.007865   0.000456
   13  C  1 XY    0.001144  -0.005088   0.001661   0.001785   0.003312
   14  C  1 XZ   -0.001961   0.000838   0.002454   0.000855   0.001430
   15  C  1 YZ    0.000505  -0.000035  -0.000201  -0.000474  -0.000086
   16  C  2  S   -0.078946  -0.013136   0.116554  -0.042262   0.078246
   17  C  2  S    0.156402   0.027049  -0.240068   0.091363  -0.170033
   18  C  2  X   -0.040678   0.114239   0.034171   0.189608   0.084752
   19  C  2  Y   -0.088933  -0.055673   0.056956  -0.030210  -0.088646
   20  C  2  Z    0.001788  -0.019345  -0.002363  -0.029146  -0.016628
   21  C  2  S    0.091876   0.024862  -0.173788   0.076360  -0.117865
   22  C  2  X   -0.012339   0.014200   0.012581   0.025291   0.016217
   23  C  2  Y   -0.023998  -0.010219   0.013004  -0.005244  -0.028186
   24  C  2  Z    0.000678  -0.002552  -0.001234  -0.003938  -0.003707
   25  C  2 XX    0.003651  -0.006422  -0.004221  -0.004538   0.000812
   26  C  2 YY   -0.003383   0.006215   0.008395   0.001649   0.007274
   27  C  2 ZZ   -0.008354  -0.001532   0.011265  -0.004815   0.007532
   28  C  2 XY   -0.004185  -0.005723   0.004251   0.002143  -0.006403
   29  C  2 XZ   -0.002281   0.000562   0.002884   0.000059   0.000844
   30  C  2 YZ    0.000903   0.001259  -0.000802   0.000043   0.000915
   31  C  3  S   -0.094237  -0.116782   0.052196  -0.044809  -0.088352
   32  C  3  S    0.180289   0.229473  -0.103435   0.094283   0.181558
   33  C  3  X   -0.064569  -0.021728   0.018920   0.021361   0.067653
   34  C  3  Y   -0.010342  -0.041642  -0.106993   0.146182  -0.073625
   35  C  3  Z    0.008952   0.001201  -0.007816   0.003770  -0.013383
   36  C  3  S    0.112770   0.171457  -0.079897   0.056026   0.138370
   37  C  3  X   -0.006576   0.003790  -0.003250   0.026705   0.040479
   38  C  3  Y   -0.002671  -0.009440  -0.011827   0.049777  -0.010007
   39  C  3  Z    0.000839  -0.001001  -0.000082  -0.001560  -0.006403
   40  C  3 XX    0.000501  -0.004202   0.000311  -0.001595  -0.003322
   41  C  3 YY    0.002336   0.003413   0.001173  -0.002391  -0.004890
   42  C  3 ZZ   -0.010458  -0.011590   0.004861  -0.003302  -0.007131
   43  C  3 XY    0.000322   0.004011   0.010367  -0.007195   0.004423
   44  C  3 XZ   -0.001880  -0.001083   0.001298  -0.000650  -0.000441
   45  C  3 YZ    0.000665   0.000239  -0.001730   0.001108  -0.000524
   46  C  4  S   -0.094394  -0.106687  -0.078629   0.088820   0.008961
   47  C  4  S    0.180731   0.209629   0.155469  -0.179640  -0.019511
   48  C  4  X   -0.030225   0.037960  -0.081948  -0.006013   0.161228
   49  C  4  Y    0.057243   0.048350  -0.036781   0.047831   0.106166
   50  C  4  Z    0.007125  -0.003276   0.010250   0.003147  -0.018562
   51  C  4  S    0.110360   0.155017   0.116482  -0.142234  -0.009533
   52  C  4  X   -0.003244   0.002408  -0.003495   0.006343   0.042624
   53  C  4  Y    0.003479  -0.003003  -0.010243   0.043296   0.038921
   54  C  4  Z    0.000641  -0.000498   0.000028   0.001125  -0.004393
   55  C  4 XX    0.001221  -0.004353   0.006354   0.003448  -0.006881
   56  C  4 YY    0.001635   0.003603  -0.008443   0.004030   0.007945
   57  C  4 ZZ   -0.010420  -0.010620  -0.007369   0.007866   0.000458
   58  C  4 XY    0.001144   0.005088  -0.001661   0.001785   0.003312
   59  C  4 XZ   -0.001958  -0.000836  -0.002450   0.000851   0.001426
   60  C  4 YZ    0.000506   0.000037   0.000202  -0.000478  -0.000086
   61  C  5  S   -0.078945   0.013135  -0.116554  -0.042262   0.078245
   62  C  5  S    0.156412  -0.027047   0.240068   0.091361  -0.170035
   63  C  5  X    0.040689   0.114238   0.034183  -0.189605  -0.084754
   64  C  5  Y    0.088932  -0.055672   0.056951   0.030208   0.088647
   65  C  5  Z   -0.001721  -0.019359  -0.002278   0.029176   0.016610
   66  C  5  S    0.091763  -0.024867   0.173784   0.076377  -0.117821
   67  C  5  X    0.012274   0.014171   0.012550  -0.025283  -0.016189
   68  C  5  Y    0.023875  -0.010214   0.013019   0.005261   0.028218
   69  C  5  Z   -0.000659  -0.002555  -0.001213   0.003958   0.003713
   70  C  5 XX    0.003651   0.006423   0.004219  -0.004539   0.000811
   71  C  5 YY   -0.003382  -0.006215  -0.008395   0.001649   0.007273
   72  C  5 ZZ   -0.008353   0.001531  -0.011264  -0.004814   0.007532
   73  C  5 XY   -0.004184   0.005723  -0.004252   0.002143  -0.006403
   74  C  5 XZ   -0.002283  -0.000558  -0.002885   0.000056   0.000841
   75  C  5 YZ    0.000901  -0.001261   0.000801   0.000041   0.000919
   76  C  6  S   -0.094240   0.116782  -0.052195  -0.044809  -0.088352
   77  C  6  S    0.180279  -0.229471   0.103436   0.094285   0.181559
   78  C  6  X    0.064566  -0.021725   0.018917  -0.021364  -0.067650
   79  C  6  Y    0.010342  -0.041643  -0.106993  -0.146181   0.073624
   80  C  6  Z   -0.008972   0.001219  -0.007835  -0.003790   0.013404
   81  C  6  S    0.112965  -0.171470   0.079869   0.055991   0.138330
   82  C  6  X    0.006690   0.003790  -0.003267  -0.026725  -0.040514
   83  C  6  Y    0.002727  -0.009425  -0.011807  -0.049784   0.009998
   84  C  6  Z   -0.000853  -0.000999  -0.000078   0.001549   0.006407
   85  C  6 XX    0.000500   0.004203  -0.000312  -0.001595  -0.003322
   86  C  6 YY    0.002337  -0.003413  -0.001173  -0.002391  -0.004890
   87  C  6 ZZ   -0.010460   0.011589  -0.004859  -0.003300  -0.007131
   88  C  6 XY    0.000323  -0.004012  -0.010367  -0.007194   0.004423
   89  C  6 XZ   -0.001884   0.001086  -0.001300  -0.000652  -0.000442
   90  C  6 YZ    0.000667  -0.000240   0.001733   0.001113  -0.000523
   91  H  7  S    0.035544  -0.069558   0.031881   0.049569   0.101699
   92  H  7  S    0.004593  -0.016936   0.005527   0.013733   0.042824
   93  H  7  X    0.004134  -0.006900   0.003201   0.004082   0.007480
   94  H  7  Y    0.000466  -0.000908  -0.001103  -0.002059   0.002229
   95  H  7  Z   -0.000584   0.000969  -0.000521  -0.000696  -0.000991
   96  H  8  S    0.036302  -0.066500  -0.048418  -0.091099  -0.004462
   97  H  8  S    0.004918  -0.019118  -0.011046  -0.037817   0.002606
   98  H  8  X    0.002229  -0.003135  -0.003522  -0.004378  -0.002686
   99  H  8  Y   -0.003590   0.005683   0.003315   0.005597  -0.001144
  100  H  8  Z   -0.000496   0.000728   0.000672   0.000906   0.000339
  101  O  9  S    0.038168   0.000241  -0.044507   0.000986  -0.026369
  102  O  9  S   -0.089937  -0.000651   0.103239  -0.001628   0.059796
  103  O  9  X    0.013864   0.023703  -0.007476   0.064137   0.039011
  104  O  9  Y   -0.040665  -0.035115   0.121575  -0.175695   0.170251
  105  O  9  Z   -0.003862  -0.005085   0.006633  -0.017414   0.002039
  106  O  9  S   -0.081343   0.000283   0.119228   0.000050   0.084720
  107  O  9  X    0.001736   0.010747  -0.000238   0.033761   0.024290
  108  O  9  Y   -0.021328  -0.014076   0.055723  -0.079150   0.082238
  109  O  9  Z   -0.001227  -0.002225   0.002582  -0.008564   0.000191
[...]
  8   H            X  0.36788199  0.15238661  0.19505019 -0.26100704 -0.15061175
                   Y  0.24751584  0.05713468  0.12801983 -0.21532076 -0.02771784
                   Z -0.04340974 -0.01961734 -0.02290747  0.02941377  0.02081246
  9   O            X  0.00040440 -0.04694647 -0.05130679 -0.02438657 -0.03211934
                   Y  0.00760423 -0.01802979 -0.02434480 -0.05977303 -0.06773262
                   Z  0.00030736  0.00594092  0.00627939  0.00076402  0.00154709
 10   H            X -0.04187813  0.03697407  0.04572651 -0.02139052  0.04951061
                   Y  0.49619708 -0.23252910 -0.22437380 -0.21869041  0.10534889
                   Z  0.02920802 -0.01621717 -0.01734007 -0.00773886 -0.00229356
 11   H            X -0.36830221  0.15151953 -0.19493490 -0.26107841  0.15058851
                   Y -0.24763310  0.05658306 -0.12798741 -0.21534229  0.02768192
                   Z  0.04321453 -0.01971666  0.02296150  0.02928698 -0.02073016
 12   O            X -0.00028144 -0.04697406  0.05126584 -0.02440624  0.03212604
                   Y -0.00755515 -0.01807088  0.02433491 -0.05977877  0.06771689
                   Z -0.00034020  0.00600386 -0.00634312  0.00069380 -0.00146647
 13   H            X  0.01149056  0.35958789  0.38165486 -0.05398073 -0.04946414
                   Y  0.01788756  0.34845139  0.36404456 -0.09008872 -0.08907448
                   Z -0.00109106 -0.03683976 -0.03901482  0.00390069  0.00372971
 14   H            X -0.01245409  0.35981754 -0.38142328 -0.05394935  0.04946362
                   Y -0.01883392  0.34863480 -0.36381067 -0.09007908  0.08908016
                   Z  0.00125274 -0.03679700  0.03896743  0.00398588 -0.00379415

 TRANS. SAYVETZ    X  0.00000084  0.00007558  0.00000258  0.00042965 -0.00000061
                   Y -0.00000107 -0.00007994  0.00000088 -0.00005883  0.00000228
                   Z  0.00000408  0.00002531  0.00000269 -0.00060022 -0.00000673
               TOTAL  0.00000430  0.00011288  0.00000383  0.00074048  0.00000713

   ROT. SAYVETZ    X -0.00150474  0.00019644 -0.00247451  0.00002853  0.00189026
                   Y  0.00113113 -0.00008785  0.00065390  0.00001917 -0.00149191
                   Z  0.00220218 -0.00002156 -0.00281943  0.00000589 -0.00815234
               TOTAL  0.00289712  0.00021627  0.00380788  0.00003488  0.00850055

                         31          32          33          34          35
       FREQUENCY:      1369.27     1379.92     1499.42     1567.54     1659.64  
        SYMMETRY:         A           A           A           A           A   
    REDUCED MASS:      1.30594     4.09600     2.86136     2.82194     6.14981
    IR INTENSITY:      0.00000     1.22777     2.61478     3.89682     0.00000

  1   C            X -0.03827782 -0.09126492 -0.00353014 -0.07969382 -0.10886740
                   Y -0.00231567 -0.06507786  0.07883228 -0.04510710 -0.02663661
                   Z  0.00553276  0.01042229  0.00425377  0.00954565  0.01476468
  2   C            X -0.03439107  0.09118440  0.10101805  0.02488647  0.13471566
                   Y  0.04667099 -0.04864924 -0.02117953  0.11647907 -0.03873509
                   Z  0.00722419 -0.01556138 -0.01578968  0.00189882 -0.02147175
  3   C            X -0.00325006  0.00052194 -0.04800681  0.04057774 -0.06229125
                   Y  0.06470849  0.10064416 -0.09178201 -0.06339300  0.02483314
                   Z  0.00358695  0.00461043  0.00272404 -0.00899994  0.01039143
  4   C            X  0.03825189 -0.09128576 -0.00352847 -0.07969664  0.10887430
                   Y  0.00229057 -0.06507395  0.07883146 -0.04509867  0.02663476
                   Z -0.00549333  0.01037490  0.00425982  0.00950994 -0.01473613
  5   C            X  0.03439155  0.09116612  0.10101029  0.02490199 -0.13471312
                   Y -0.04668673 -0.04862311 -0.02118402  0.11647155  0.03873376
                   Z -0.00733025 -0.01564915 -0.01583226  0.00199920  0.02150009
  6   C            X  0.00325696  0.00052891 -0.04800787  0.04057484  0.06228709
                   Y -0.06468100  0.10066049 -0.09178201 -0.06338238 -0.02483209
                   Z -0.00359372  0.00465432  0.00272327 -0.00903016 -0.01041734
  7   H            X -0.02639462  0.01189935 -0.08346333  0.03233937  0.06558864
                   Y  0.32774122 -0.05549828  0.25629773  0.21254293  0.03633683
                   Z  0.02017020 -0.00443514  0.02450885  0.00549890 -0.00759025
  8   H            X  0.29835379  0.10712721 -0.13250094  0.22868916  0.07990521
                   Y  0.24024483  0.07195347  0.00340093  0.18026059  0.11100835
                   Z -0.03364394 -0.01304398  0.01987683 -0.02597825 -0.00700484
  9   O            X  0.02777011 -0.01967100 -0.03369466 -0.00050860 -0.01958873
                   Y -0.01149802 -0.00254616 -0.00129659 -0.02463977 -0.00181091
                   Z -0.00454144  0.00268791  0.00482505 -0.00105367  0.00273719
 10   H            X  0.02640869  0.01191587 -0.08346748  0.03232348 -0.06558503
                   Y -0.32772964 -0.05541459  0.25629225  0.21255146 -0.03633696
                   Z -0.02013142 -0.00424616  0.02445727  0.00540420  0.00761980
 11   H            X -0.29831450  0.10722799 -0.13251384  0.22870667 -0.07991789
                   Y -0.24018719  0.07200875  0.00340442  0.18025728 -0.11100955
                   Z  0.03341710 -0.01285737  0.01978293 -0.02583574  0.00693665
 12   O            X -0.02776463 -0.01965395 -0.03368895 -0.00051396  0.01958463
                   Y  0.01149903 -0.00255534 -0.00129559 -0.02463743  0.00181216
                   Z  0.00460835  0.00274180  0.00485889 -0.00109985 -0.00276010
 13   H            X -0.23631047  0.18790121  0.16191728 -0.08362273  0.09800462
                   Y -0.24505282  0.17949628  0.16732844 -0.09682937  0.09633724
                   Z  0.02333084 -0.01893790 -0.01623967  0.00848073 -0.00961787
 14   H            X  0.23638977  0.18779986  0.16192557 -0.08363457 -0.09799334
                   Y  0.24512611  0.17939961  0.16733534 -0.09685136 -0.09633048
                   Z -0.02333346 -0.01899397 -0.01623599  0.00853200  0.00965194

 TRANS. SAYVETZ    X -0.00000119 -0.00011584  0.00071709 -0.00017119  0.00000013
                   Y -0.00000030 -0.00001987  0.00011436  0.00001260 -0.00000019
                   Z -0.00000257 -0.00001726 -0.00044900  0.00055153  0.00000086
               TOTAL  0.00000285  0.00011879  0.00085375  0.00057763  0.00000090

   ROT. SAYVETZ    X  0.00105321  0.00007747 -0.00000062 -0.00005428  0.00150540
                   Y -0.00506838 -0.00005593 -0.00002615 -0.00000596 -0.00496530
                   Z -0.00270608  0.00000525  0.00000660 -0.00001024  0.00290890
               TOTAL  0.00584128  0.00009569  0.00002697  0.00005556  0.00594829

                         36          37          38          39          40
       FREQUENCY:      1687.02     3163.72     3165.54     3210.53     3212.27  
        SYMMETRY:         A           A           A           A           A   
    REDUCED MASS:      6.20611     1.08935     1.08989     1.09275     1.09311
    IR INTENSITY:      0.00000     0.87450     0.00000     0.25293     0.00000

  1   C            X -0.05020864  0.03266242  0.03267701 -0.00390482  0.00489966
                   Y -0.08710731 -0.04699853 -0.04712653  0.00993831 -0.00994501
                   Z  0.00324932 -0.00701324 -0.00702212  0.00103403 -0.00118190
  2   C            X -0.00280711 -0.00283364 -0.00232252  0.00183261 -0.00020651
                   Y  0.10074939 -0.00154574 -0.00167874 -0.00246789 -0.00296232
                   Z  0.00522842  0.00033838  0.00026134 -0.00039012 -0.00011084
  3   C            X -0.00198317 -0.00793596  0.00883564 -0.05759761 -0.05767591
                   Y -0.13234230  0.00160671 -0.00042197 -0.00491541 -0.00477332
                   Z -0.00589307  0.00123885 -0.00131546  0.00820883  0.00822514
  4   C            X  0.05021552  0.03267633 -0.03266324 -0.00390337 -0.00490081
                   Y  0.08710458 -0.04701849  0.04710663  0.00993534  0.00994812
                   Z -0.00322460 -0.00701605  0.00701917  0.00103431  0.00118192
  5   C            X  0.00279483 -0.00283497  0.00232161  0.00183239  0.00020741
                   Y -0.10075076 -0.00154649  0.00167812 -0.00246878  0.00296137
                   Z -0.00530336  0.00033673 -0.00025967 -0.00039165  0.00011272
  6   C            X  0.00198591 -0.00793239 -0.00883786 -0.05761602  0.05765340
                   Y  0.13234763  0.00160638  0.00042255 -0.00491798  0.00477250
                   Z  0.00592555  0.00124056  0.00131825  0.00822579 -0.00823605
  7   H            X  0.02172909  0.10665774  0.11427760  0.65684983 -0.65519788
                   Y -0.15079852  0.00585638  0.00836097  0.05357191 -0.05304769
                   Z -0.01007339 -0.01533376 -0.01635876 -0.09371947  0.09351802
  8   H            X  0.11187742 -0.37372741 -0.37299991  0.05690594 -0.06207395
                   Y  0.02623860  0.54547523  0.54451716 -0.08765044  0.09387605
                   Z -0.01528933  0.08063720  0.08041299 -0.01256685  0.01357926
  9   O            X  0.00147744  0.00033599  0.00035591 -0.00030300  0.00009373
                   Y -0.01318062  0.00012960  0.00029483  0.00022819  0.00036673
                   Z -0.00083306 -0.00004187 -0.00003756  0.00005472  0.00000101
 10   H            X -0.02174128  0.10670388 -0.11424528  0.65663937  0.65545404
                   Y  0.15078510  0.00585794 -0.00835739  0.05354367  0.05305713
                   Z  0.00998532 -0.01531447  0.01632578 -0.09353131 -0.09339583
 11   H            X -0.11189425 -0.37388346  0.37284049  0.05688864  0.06209055
                   Y -0.02624462  0.54570580 -0.54428649 -0.08762441 -0.09390214
                   Z  0.01521956  0.08067465 -0.08038239 -0.01256370 -0.01358547
 12   O            X -0.00147424  0.00033596 -0.00035562 -0.00030293 -0.00009386
                   Y  0.01318010  0.00012987 -0.00029488  0.00022832 -0.00036663
                   Z  0.00085811 -0.00004235  0.00003804  0.00005543 -0.00000140
 13   H            X -0.05073904  0.00107551  0.00055086  0.00171526  0.00060262
                   Y -0.05638682  0.00548746  0.00595645  0.00008324  0.00206790
                   Z  0.00484754  0.00009857  0.00017590 -0.00013599 -0.00001948
 14   H            X  0.05074860  0.00108009 -0.00055512  0.00171515 -0.00060234
                   Y  0.05639977  0.00548802 -0.00595250  0.00008378 -0.00206788
                   Z -0.00487498  0.00012030 -0.00019903 -0.00014267  0.00001715

 TRANS. SAYVETZ    X -0.00000052  0.00011213  0.00000010 -0.00006399  0.00000007
                   Y -0.00000008 -0.00001692 -0.00000001  0.00002075  0.00000085
                   Z  0.00000116  0.00006234  0.00000012  0.00009209  0.00000011
               TOTAL  0.00000127  0.00012940  0.00000016  0.00011404  0.00000086

   ROT. SAYVETZ    X  0.00636726  0.00000880  0.00020475 -0.00000792  0.00009281
                   Y -0.00400873  0.00001206  0.00026633  0.00002543 -0.00013717
                   Z  0.00993697 -0.00000269  0.00079957  0.00000328  0.00049105
               TOTAL  0.01246416  0.00001517  0.00086728  0.00002683  0.00051822

                         41          42
       FREQUENCY:      3825.20     3826.32  
        SYMMETRY:         A           A   
    REDUCED MASS:      1.06595     1.06614
    IR INTENSITY:      1.99595     0.00001

  1   C            X -0.00008802  0.00031513
                   Y  0.00080469 -0.00088509
                   Z  0.00004914 -0.00008678
  2   C            X  0.00161609 -0.00174869
                   Y -0.00051520  0.00040180
                   Z -0.00026064  0.00027433
  3   C            X -0.00031751  0.00030180
                   Y  0.00026150 -0.00041111
                   Z  0.00005822 -0.00006198
  4   C            X -0.00008664 -0.00031535
                   Y  0.00080121  0.00088818
                   Z  0.00004883  0.00008758
  5   C            X  0.00160860  0.00175471
                   Y -0.00051351 -0.00040378
                   Z -0.00026240 -0.00027752
  6   C            X -0.00031624 -0.00030296
                   Y  0.00025988  0.00041208
                   Z  0.00005807  0.00006297
  7   H            X  0.00042358 -0.00051401
                   Y  0.00070849  0.00012960
                   Z -0.00001327  0.00008399
  8   H            X  0.00027729 -0.00088591
                   Y -0.00338580  0.00332238
                   Z -0.00014322  0.00025661
  9   O            X  0.02727510 -0.02705791
                   Y -0.03241248  0.03245413
                   Z -0.00541467  0.00538618
 10   H            X  0.00042179  0.00051587
                   Y  0.00070903 -0.00012640
                   Z -0.00001253 -0.00008766
 11   H            X  0.00027143  0.00088429
                   Y -0.00337191 -0.00333498
                   Z -0.00014627 -0.00026378
 12   O            X  0.02714768  0.02714676
                   Y -0.03227717 -0.03257703
                   Z -0.00552520 -0.00554032
 13   H            X -0.44800863  0.44612240
                   Y  0.51052581 -0.50851274
                   Z  0.08798984 -0.08758491
 14   H            X -0.44591482 -0.44758785
                   Y  0.50840286  0.51044675
                   Z  0.08976057  0.09005916

 TRANS. SAYVETZ    X -0.00003060  0.00000001
                   Y -0.00000237 -0.00000107
                   Z  0.00013603  0.00000052
               TOTAL  0.00013945  0.00000119

   ROT. SAYVETZ    X  0.00000656  0.00020207
                   Y  0.00001627 -0.00028239
                   Z -0.00000135  0.00115923
               TOTAL  0.00001760  0.00121012

 REFERENCE ON SAYVETZ CONDITIONS - A. SAYVETZ, J.CHEM.PHYS., 7, 383-389(1939).

 NOTE - THE MODES J,K ARE ORTHONORMALIZED ACCORDING TO
 SUM ON I   M(I) * (X(I,J)*X(I,K) + Y(I,J)*Y(I,K) + Z(I,J)*Z(I,K)) = DELTA(J,K)

  MODE FREQ(CM**-1)  SYMMETRY  RED. MASS  IR INTENS.
     1       3.352    A        5.954356    0.000000
     2       0.793    A        6.450525    0.000000
     3       0.292    A        7.855009    0.000014
     4       0.028    A        7.859900    0.000000
     5       0.375    A        7.849966    0.000003
     6       4.269    A        3.751911    0.000000
     7     157.108    A        6.493025    0.004278
     8     303.400    A        1.090466    0.001673
     9     306.671    A        1.106425    5.607098
    10     344.691    A        5.049221    0.420902
    11     370.457    A        6.937535    0.000000
    12     426.873    A        3.178233    0.080381
    13     450.419    A        3.707032    0.000000
    14     471.828    A        8.217023    0.000000
    15     524.769    A        2.281030    0.220853
    16     660.477    A        6.858870    0.000000
    17     700.938    A        4.559386    0.000002
    18     766.860    A        5.791622    1.198576
    19     804.159    A        1.254100    0.000001
    20     828.130    A        1.714676    1.311921
    21     868.983    A        6.555382    0.000000
    22     916.425    A        1.266962    0.000000
    23     929.798    A        1.303345    0.014078
    24    1026.670    A        2.532094    0.002500
    25    1122.041    A        1.344343    0.961204
    26    1189.323    A        1.106892    0.000013
    27    1192.418    A        1.438170    6.997890
    28    1204.712    A        1.265081    0.000002
    29    1287.471    A        2.495650    3.862542
    30    1313.158    A        5.979997    0.000002
    31    1369.271    A        1.305936    0.000000
    32    1379.921    A        4.095995    1.227773
    33    1499.418    A        2.861360    2.614776
    34    1567.543    A        2.821936    3.896823
    35    1659.645    A        6.149811    0.000000
    36    1687.022    A        6.206115    0.000001
    37    3163.725    A        1.089348    0.874504
    38    3165.543    A        1.089894    0.000000
    39    3210.529    A        1.092750    0.252935
    40    3212.273    A        1.093115    0.000000
    41    3825.200    A        1.065955    1.995952
    42    3826.325    A        1.066144    0.000012

     -------------------------------
     THERMOCHEMISTRY AT T=  298.15 K
     -------------------------------

 USING IDEAL GAS, RIGID ROTOR, HARMONIC NORMAL MODE APPROXIMATIONS.
 P=  1.01325E+05 PASCAL.
 ALL FREQUENCIES ARE SCALED BY   1.00000
 THE MOMENTS OF INERTIA ARE (IN AMU*BOHR**2)
    321.65008  1222.54828  1544.19820
 THE ROTATIONAL SYMMETRY NUMBER IS  1.0
 THE ROTATIONAL CONSTANTS ARE (IN GHZ)
      5.60574     1.47486     1.16765
 THE HARMONIC ZERO POINT ENERGY IS (SCALED BY   1.000)
        0.108747 HARTREE/MOLECULE    23867.095624 CM**-1/MOLECULE 
       68.239519 KCAL/MOL              285.514148 KJ/MOL

               Q               LN Q
 ELEC.     1.00000E+00       0.000000
 TRANS.    4.53691E+07      17.630343
 ROT.      2.78944E+05      12.538768
 VIB.      9.05959E+00       2.203824
 TOT.      1.14653E+14      32.372934

              E         H         G         CV        CP        S
           KJ/MOL    KJ/MOL    KJ/MOL   J/MOL-K   J/MOL-K   J/MOL-K
 ELEC.      0.000     0.000     0.000     0.000     0.000     0.000
 TRANS.     3.718     6.197   -43.705    12.472    20.786   167.372
 ROT.       3.718     3.718   -31.083    12.472    12.472   116.724
 VIB.     295.918   295.918   280.051    86.902    86.902    53.217
 TOTAL    303.355   305.833   205.264   111.846   120.160   337.313
 VIB. THERMAL CORRECTION E(T)-E(0) = H(T)-H(0) = 10403.583 J/MOL

              E         H         G         CV        CP        S
         KCAL/MOL  KCAL/MOL  KCAL/MOL CAL/MOL-K CAL/MOL-K CAL/MOL-K
 ELEC.      0.000     0.000     0.000     0.000     0.000     0.000
 TRANS.     0.889     1.481   -10.446     2.981     4.968    40.003
 ROT.       0.889     0.889    -7.429     2.981     2.981    27.898
 VIB.      70.726    70.726    66.934    20.770    20.770    12.719
 TOTAL     72.503    73.096    49.059    26.732    28.719    80.620
 VIB. THERMAL CORRECTION E(T)-E(0) = H(T)-H(0) =  2486.516 CAL/MOL
 ......END OF NORMAL COORDINATE ANALYSIS......
 CPU     0: STEP CPU TIME=     0.00 TOTAL CPU TIME=     1574.2 (   26.2 MIN)
 TOTAL WALL CLOCK TIME=     2486.2 SECONDS, CPU UTILIZATION IS  63.32%
               1191001  WORDS OF DYNAMIC MEMORY USED
 EXECUTION OF GAMESS TERMINATED NORMALLY Fri Nov  7 09:53:30 2014
 DDI: 263624 bytes (0.3 MB / 0 MWords) used by master data server.

 ----------------------------------------
 CPU timing information for all processes
 ========================================
 0: 1565.249 + 9.00 = 1574.249
 1: 1598.45 + 5.312 = 1603.357
 2: 1562.857 + 6.818 = 1569.676
 3: 1569.67 + 4.980 = 1574.47
 4: 1553.790 + 6.493 = 1560.283
 5: 1641.218 + 4.411 = 1645.629
 6: 1560.649 + 5.548 = 1566.197
 7: 1577.94 + 4.402 = 1581.496
 ----------------------------------------
 ddikick.x: exited gracefully.
unset echo
----- accounting info -----
Files used on the master node tizard28 were:
-rw-r--r-- 1 tnann tnann    1412 Nov  7 09:12 /scratch/868355.tizard1/HQ.F05
-rw-rw-r-- 1 tnann tnann 4122720 Nov  7 09:53 /scratch/868355.tizard1/HQ.F10
-rw-rw-r-- 1 tnann tnann 3750320 Nov  7 09:53 /scratch/868355.tizard1/HQ.F22
-rw-rw-r-- 1 tnann tnann 3750320 Nov  7 09:53 /scratch/868355.tizard1/HQ.F22.001
-rw-rw-r-- 1 tnann tnann 3750320 Nov  7 09:53 /scratch/868355.tizard1/HQ.F22.002
-rw-rw-r-- 1 tnann tnann 3750320 Nov  7 09:53 /scratch/868355.tizard1/HQ.F22.003
-rw-rw-r-- 1 tnann tnann 3750320 Nov  7 09:53 /scratch/868355.tizard1/HQ.F22.004
-rw-rw-r-- 1 tnann tnann 3750320 Nov  7 09:53 /scratch/868355.tizard1/HQ.F22.005
-rw-rw-r-- 1 tnann tnann 3750320 Nov  7 09:53 /scratch/868355.tizard1/HQ.F22.006
-rw-rw-r-- 1 tnann tnann 3750320 Nov  7 09:53 /scratch/868355.tizard1/HQ.F22.007
ls: No match.
ls: No match.
ls: No match.
Fri Nov  7 09:53:33 CST 2014
0.281u 0.155s 41:30.80 0.0%	0+0k 8+208io 0pf+0w
