 Entering Gaussian System, Link 0=/opt/g09.TEST/g09
 Initial command:
 /opt/g09.d01/l1.exe /scr/Gau-29989.inp -scrdir=/scr/
 Entering Link 1 = /opt/g09.d01/l1.exe PID=     29990.
  
 Copyright (c) 1988,1990,1992,1993,1995,1998,2003,2009,2013,
            Gaussian, Inc.  All Rights Reserved.
  
 This is part of the Gaussian(R) 09 program.  It is based on
 the Gaussian(R) 03 system (copyright 2003, Gaussian, Inc.),
 the Gaussian(R) 98 system (copyright 1998, Gaussian, Inc.),
 the Gaussian(R) 94 system (copyright 1995, Gaussian, Inc.),
 the Gaussian 92(TM) system (copyright 1992, Gaussian, Inc.),
 the Gaussian 90(TM) system (copyright 1990, Gaussian, Inc.),
 the Gaussian 88(TM) system (copyright 1988, Gaussian, Inc.),
 the Gaussian 86(TM) system (copyright 1986, Carnegie Mellon
 University), and the Gaussian 82(TM) system (copyright 1983,
 Carnegie Mellon University). Gaussian is a federally registered
 trademark of Gaussian, Inc.
  
 This software contains proprietary and confidential information,
 including trade secrets, belonging to Gaussian, Inc.
  
 This software is provided under written license and may be
 used, copied, transmitted, or stored only in accord with that
 written license.
  
 The following legend is applicable only to US Government
 contracts under FAR:
  
                    RESTRICTED RIGHTS LEGEND
  
 Use, reproduction and disclosure by the US Government is
 subject to restrictions as set forth in subparagraphs (a)
 and (c) of the Commercial Computer Software - Restricted
 Rights clause in FAR 52.227-19.
  
 Gaussian, Inc.
 340 Quinnipiac St., Bldg. 40, Wallingford CT 06492
  
  
 ---------------------------------------------------------------
 Warning -- This program may not be used in any manner that
 competes with the business of Gaussian, Inc. or will provide
 assistance to any competitor of Gaussian, Inc.  The licensee
 of this program is prohibited from giving any competitor of
 Gaussian, Inc. access to this program.  By using this program,
 the user acknowledges that Gaussian, Inc. is engaged in the
 business of creating and licensing software in the field of
 computational chemistry and represents and warrants to the
 licensee that it is not a competitor of Gaussian, Inc. and that
 it will not use this program in any manner prohibited above.
 ---------------------------------------------------------------
  

 Cite this work as:
 Gaussian 09, Revision D.01,
 M. J. Frisch, G. W. Trucks, H. B. Schlegel, G. E. Scuseria, 
 M. A. Robb, J. R. Cheeseman, G. Scalmani, V. Barone, B. Mennucci, 
 G. A. Petersson, H. Nakatsuji, M. Caricato, X. Li, H. P. Hratchian, 
 A. F. Izmaylov, J. Bloino, G. Zheng, J. L. Sonnenberg, M. Hada, 
 M. Ehara, K. Toyota, R. Fukuda, J. Hasegawa, M. Ishida, T. Nakajima, 
 Y. Honda, O. Kitao, H. Nakai, T. Vreven, J. A. Montgomery, Jr., 
 J. E. Peralta, F. Ogliaro, M. Bearpark, J. J. Heyd, E. Brothers, 
 K. N. Kudin, V. N. Staroverov, T. Keith, R. Kobayashi, J. Normand, 
 K. Raghavachari, A. Rendell, J. C. Burant, S. S. Iyengar, J. Tomasi, 
 M. Cossi, N. Rega, J. M. Millam, M. Klene, J. E. Knox, J. B. Cross, 
 V. Bakken, C. Adamo, J. Jaramillo, R. Gomperts, R. E. Stratmann, 
 O. Yazyev, A. J. Austin, R. Cammi, C. Pomelli, J. W. Ochterski, 
 R. L. Martin, K. Morokuma, V. G. Zakrzewski, G. A. Voth, 
 P. Salvador, J. J. Dannenberg, S. Dapprich, A. D. Daniels, 
 O. Farkas, J. B. Foresman, J. V. Ortiz, J. Cioslowski, 
 and D. J. Fox, Gaussian, Inc., Wallingford CT, 2013.
 
 ******************************************
 Gaussian 09:  EM64L-G09RevD.01 24-Apr-2013
                18-Mar-2015 
 ******************************************
 %NProcShared=8
 Will use up to    8 processors via shared memory.
 %Chk=HQ_vib.chk
 %mem=2gb
 ---------------------------------------------
 #p B3LYP/6-31G(d) Freq(hpmodes,savenm) nosymm
 ---------------------------------------------
 1/10=4,30=1,38=1/1,3;
 2/12=2,15=1,17=6,18=5,40=1/2;
 3/5=1,6=6,7=1,11=2,16=1,25=1,30=1,71=2,74=-5,140=1/1,2,3;
 4//1;
 5/5=2,38=5,98=1/2;
 8/6=4,10=90,11=11/1;
 11/6=1,8=1,9=11,15=111,16=1,31=1/1,2,10;
 10/6=1,31=1/2;
 6/7=2,8=2,9=2,10=2,18=1,28=1/1;
 7/8=11,10=1,25=1,30=1,92=1/1,2,3,16;
 1/10=4,30=1/3;
 99//99;
 Leave Link    1 at Wed Mar 18 11:16:07 2015, MaxMem=   268435456 cpu:         0.4
 (Enter /opt/g09.d01/l101.exe)
 -------
 Título
 -------
 Symbolic Z-matrix:
 Charge =  0 Multiplicity = 1
 C                    -2.95387   3.08423   0.51064 
 C                    -1.57347   3.19488   0.31352 
 C                    -0.80822   2.03798   0.14711 
 C                    -1.41922   0.78545   0.17732 
 C                    -2.79969   0.67482   0.37396 
 C                    -3.56486   1.83169   0.54093 
 H                    -4.63502   1.73821   0.69344 
 H                    -3.55801   3.98003   0.64131 
 O                    -0.91881   4.40058   0.27426 
 H                     0.26199   2.13145  -0.00512 
 H                    -0.81509  -0.11036   0.04662 
 O                    -3.45451  -0.53083   0.41218 
 H                    -1.56201   5.11024   0.39947 
 H                    -2.81175  -1.24036   0.28397 
 
 NAtoms=     14 NQM=       14 NQMF=       0 NMMI=      0 NMMIF=      0
                NMic=       0 NMicF=      0.
                    Isotopes and Nuclear Properties:
 (Nuclear quadrupole moments (NQMom) in fm**2, nuclear magnetic moments (NMagM)
  in nuclear magnetons)

  Atom         1           2           3           4           5           6           7           8           9          10
 IAtWgt=          12          12          12          12          12          12           1           1          16           1
 AtmWgt=  12.0000000  12.0000000  12.0000000  12.0000000  12.0000000  12.0000000   1.0078250   1.0078250  15.9949146   1.0078250
 NucSpn=           0           0           0           0           0           0           1           1           0           1
 AtZEff=   0.0000000   0.0000000   0.0000000   0.0000000   0.0000000   0.0000000   0.0000000   0.0000000   0.0000000   0.0000000
 NQMom=    0.0000000   0.0000000   0.0000000   0.0000000   0.0000000   0.0000000   0.0000000   0.0000000   0.0000000   0.0000000
 NMagM=    0.0000000   0.0000000   0.0000000   0.0000000   0.0000000   0.0000000   2.7928460   2.7928460   0.0000000   2.7928460
 AtZNuc=   6.0000000   6.0000000   6.0000000   6.0000000   6.0000000   6.0000000   1.0000000   1.0000000   8.0000000   1.0000000

  Atom        11          12          13          14
 IAtWgt=           1          16           1           1
 AtmWgt=   1.0078250  15.9949146   1.0078250   1.0078250
 NucSpn=           1           0           1           1
 AtZEff=   0.0000000   0.0000000   0.0000000   0.0000000
 NQMom=    0.0000000   0.0000000   0.0000000   0.0000000
 NMagM=    2.7928460   0.0000000   2.7928460   2.7928460
 AtZNuc=   1.0000000   8.0000000   1.0000000   1.0000000
 Leave Link  101 at Wed Mar 18 11:16:07 2015, MaxMem=   268435456 cpu:         0.6
 (Enter /opt/g09.d01/l103.exe)

 GradGradGradGradGradGradGradGradGradGradGradGradGradGradGradGradGradGrad
 Berny optimization.
 Initialization pass.
 Trust Radius=3.00D-01 FncErr=1.00D-07 GrdErr=1.00D-07
 Number of steps in this run=      2 maximum allowed number of steps=      2.
 GradGradGradGradGradGradGradGradGradGradGradGradGradGradGradGradGradGrad

 Leave Link  103 at Wed Mar 18 11:16:07 2015, MaxMem=   268435456 cpu:         0.1
 (Enter /opt/g09.d01/l202.exe)
                          Input orientation:                          
 ---------------------------------------------------------------------
 Center     Atomic      Atomic             Coordinates (Angstroms)
 Number     Number       Type             X           Y           Z
 ---------------------------------------------------------------------
      1          6           0       -2.953870    3.084230    0.510640
      2          6           0       -1.573470    3.194880    0.313520
      3          6           0       -0.808220    2.037980    0.147110
      4          6           0       -1.419220    0.785450    0.177320
      5          6           0       -2.799690    0.674820    0.373960
      6          6           0       -3.564860    1.831690    0.540930
      7          1           0       -4.635020    1.738210    0.693440
      8          1           0       -3.558010    3.980030    0.641310
      9          8           0       -0.918810    4.400580    0.274260
     10          1           0        0.261990    2.131450   -0.005120
     11          1           0       -0.815090   -0.110360    0.046620
     12          8           0       -3.454510   -0.530830    0.412180
     13          1           0       -1.562010    5.110240    0.399470
     14          1           0       -2.811750   -1.240360    0.283970
 ---------------------------------------------------------------------
                    Distance matrix (angstroms):
                    1          2          3          4          5
     1  C    0.000000
     2  C    1.398787   0.000000
     3  C    2.414665   1.397039   0.000000
     4  C    2.783998   2.418201   1.393939   0.000000
     5  C    2.418204   2.803207   2.423968   1.398787   0.000000
     6  C    1.393945   2.423971   2.792260   2.414664   1.397037
     7  H    2.161354   3.411644   3.877207   3.393450   2.145065
     8  H    1.088355   2.159237   3.402519   3.872344   3.401608
     9  O    2.435184   1.372528   2.368602   3.650887   4.174798
    10  H    3.393457   2.145071   1.085016   2.161358   3.411650
    11  H    3.872351   3.401615   2.150700   1.088362   2.159235
    12  O    3.650889   4.174801   3.697553   2.435192   1.372531
    13  H    2.460559   1.917322   3.173431   4.332845   4.604938
    14  H    4.332858   4.604950   3.844525   2.460573   1.917331
                    6          7          8          9         10
     6  C    0.000000
     7  H    1.085007   0.000000
     8  H    2.150695   2.487655   0.000000
     9  O    3.697552   4.590658   2.697585   0.000000
    10  H    3.877216   4.962190   4.292729   2.573187   0.000000
    11  H    3.402519   4.292721   4.960701   4.517871   2.487668
    12  O    2.368598   2.573180   4.517861   5.546855   4.590669
    13  H    3.844517   4.571695   2.306486   0.965920   3.516228
    14  H    3.173436   3.516228   5.285553   5.950086   4.571712
                   11         12         13         14
    11  H    0.000000
    12  O    2.697585   0.000000
    13  H    5.285552   5.950075   0.000000
    14  H    2.306488   0.965925   6.473431   0.000000
 Symmetry turned off by external request.
 Stoichiometry    C6H6O2
 Framework group  C1[X(C6H6O2)]
 Deg. of freedom    36
 Full point group                 C1      NOp   1
 Rotational constants (GHZ):      5.6108692      1.4762129      1.1687233
 Leave Link  202 at Wed Mar 18 11:16:07 2015, MaxMem=   268435456 cpu:         0.1
 (Enter /opt/g09.d01/l301.exe)
 Standard basis: 6-31G(d) (6D, 7F)
 Ernie: Thresh=  0.10000D-02 Tol=  0.10000D-05 Strict=F.
   132 basis functions,   248 primitive gaussians,   132 cartesian basis functions
    29 alpha electrons       29 beta electrons
       nuclear repulsion energy       343.9151626862 Hartrees.
 IExCor=  402 DFT=T Ex+Corr=B3LYP ExCW=0 ScaHFX=  0.200000
 ScaDFX=  0.800000  0.720000  1.000000  0.810000 ScalE2=  1.000000  1.000000
 IRadAn=      0 IRanWt=     -1 IRanGd=            0 ICorTp=0 IEmpDi=  4
 NAtoms=   14 NActive=   14 NUniq=   14 SFac= 1.00D+00 NAtFMM=   60 NAOKFM=F Big=F
 Integral buffers will be    131072 words long.
 Raffenetti 2 integral format.
 Two-electron integral symmetry is turned off.
 Leave Link  301 at Wed Mar 18 11:16:07 2015, MaxMem=   268435456 cpu:         0.5
 (Enter /opt/g09.d01/l302.exe)
 NPDir=0 NMtPBC=     1 NCelOv=     1 NCel=       1 NClECP=     1 NCelD=      1
         NCelK=      1 NCelE2=     1 NClLst=     1 CellRange=     0.0.
 One-electron integrals computed using PRISM.
 NBasis=   132 RedAO= T EigKep=  4.43D-04  NBF=   132
 NBsUse=   132 1.00D-06 EigRej= -1.00D+00 NBFU=   132
 Precomputing XC quadrature grid using
 IXCGrd= 4 IRadAn=           0 IRanWt=          -1 IRanGd=           0 AccXCQ= 0.00D+00.
 Generated NRdTot=       0 NPtTot=           0 NUsed=           0 NTot=          32
 NSgBfM=   131   131   131   131   131 MxSgAt=    14 MxSgA2=    14.
 Leave Link  302 at Wed Mar 18 11:16:08 2015, MaxMem=   268435456 cpu:         2.4
 (Enter /opt/g09.d01/l303.exe)
 DipDrv:  MaxL=1.
 Leave Link  303 at Wed Mar 18 11:16:08 2015, MaxMem=   268435456 cpu:         0.5
 (Enter /opt/g09.d01/l401.exe)
 ExpMin= 1.61D-01 ExpMax= 5.48D+03 ExpMxC= 8.25D+02 IAcc=1 IRadAn=         1 AccDes= 0.00D+00
 Harris functional with IExCor=  402 and IRadAn=       1 diagonalized for initial guess.
 HarFok:  IExCor=  402 AccDes= 0.00D+00 IRadAn=         1 IDoV= 1 UseB2=F ITyADJ=14
 ICtDFT=  3500011 ScaDFX=  1.000000  1.000000  1.000000  1.000000
 FoFCou: FMM=F IPFlag=           0 FMFlag=      100000 FMFlg1=           0
         NFxFlg=           0 DoJE=T BraDBF=F KetDBF=T FulRan=T
         wScrn=  0.000000 ICntrl=     500 IOpCl=  0 I1Cent=   200000004 NGrid=           0
         NMat0=    1 NMatS0=      1 NMatT0=    0 NMatD0=    1 NMtDS0=    0 NMtDT0=    0
 Symmetry not used in FoFCou.
 Harris En= -382.709574150935    
 JPrj=0 DoOrth=F DoCkMO=F.
 Leave Link  401 at Wed Mar 18 11:16:09 2015, MaxMem=   268435456 cpu:         3.0
 (Enter /opt/g09.d01/l502.exe)
 Closed shell SCF:
 Using DIIS extrapolation, IDIIS=  1040.
 Two-electron integral symmetry not used.
 Keep R1 ints in memory in canonical form, NReq=39779981.
 IVT=       72698 IEndB=       72698 NGot=   268435456 MDV=   229831728
 LenX=   229831728 LenY=   229813863
 Requested convergence on RMS density matrix=1.00D-08 within 128 cycles.
 Requested convergence on MAX density matrix=1.00D-06.
 Requested convergence on             energy=1.00D-06.
 No special actions if energy rises.
 FoFCou: FMM=F IPFlag=           0 FMFlag=           0 FMFlg1=           0
         NFxFlg=           0 DoJE=F BraDBF=F KetDBF=F FulRan=T
         wScrn=  0.000000 ICntrl=     600 IOpCl=  0 I1Cent=           0 NGrid=           0
         NMat0=    1 NMatS0=   8778 NMatT0=    0 NMatD0=    1 NMtDS0=    0 NMtDT0=    0
 Symmetry not used in FoFCou.
 Integral accuracy reduced to 1.0D-05 until final iterations.

 Cycle   1  Pass 0  IDiag  1:
 E= -382.485129292922    
 DIIS: error= 4.93D-02 at cycle   1 NSaved=   1.
 NSaved= 1 IEnMin= 1 EnMin= -382.485129292922     IErMin= 1 ErrMin= 4.93D-02
 ErrMax= 4.93D-02  0.00D+00 EMaxC= 1.00D-01 BMatC= 2.04D-01 BMatP= 2.04D-01
 IDIUse=3 WtCom= 5.07D-01 WtEn= 4.93D-01
 Coeff-Com:  0.100D+01
 Coeff-En:   0.100D+01
 Coeff:      0.100D+01
 Gap=     0.214 Goal=   None    Shift=    0.000
 GapD=    0.214 DampG=1.000 DampE=0.500 DampFc=0.5000 IDamp=-1.
 Damping current iteration by 5.00D-01
 RMSDP=7.04D-03 MaxDP=1.11D-01              OVMax= 1.55D-01

 Cycle   2  Pass 0  IDiag  1:
 E= -382.576319992215     Delta-E=       -0.091190699293 Rises=F Damp=T
 DIIS: error= 7.48D-03 at cycle   2 NSaved=   2.
 NSaved= 2 IEnMin= 2 EnMin= -382.576319992215     IErMin= 2 ErrMin= 7.48D-03
 ErrMax= 7.48D-03  0.00D+00 EMaxC= 1.00D-01 BMatC= 8.64D-03 BMatP= 2.04D-01
 IDIUse=3 WtCom= 9.25D-01 WtEn= 7.48D-02
 Coeff-Com:  0.370D-01 0.963D+00
 Coeff-En:   0.386D-01 0.961D+00
 Coeff:      0.371D-01 0.963D+00
 Gap=     0.260 Goal=   None    Shift=    0.000
 RMSDP=1.21D-03 MaxDP=1.69D-02 DE=-9.12D-02 OVMax= 8.44D-02

 Cycle   3  Pass 0  IDiag  1:
 E= -382.676078332060     Delta-E=       -0.099758339845 Rises=F Damp=F
 DIIS: error= 3.42D-03 at cycle   3 NSaved=   3.
 NSaved= 3 IEnMin= 3 EnMin= -382.676078332060     IErMin= 3 ErrMin= 3.42D-03
 ErrMax= 3.42D-03  0.00D+00 EMaxC= 1.00D-01 BMatC= 2.54D-03 BMatP= 8.64D-03
 IDIUse=3 WtCom= 9.66D-01 WtEn= 3.42D-02
 Coeff-Com: -0.211D-01 0.310D+00 0.711D+00
 Coeff-En:   0.000D+00 0.000D+00 0.100D+01
 Coeff:     -0.204D-01 0.299D+00 0.721D+00
 Gap=     0.195 Goal=   None    Shift=    0.000
 RMSDP=4.93D-04 MaxDP=9.12D-03 DE=-9.98D-02 OVMax= 1.58D-02

 Cycle   4  Pass 0  IDiag  1:
 E= -382.677099903958     Delta-E=       -0.001021571897 Rises=F Damp=F
 DIIS: error= 2.99D-03 at cycle   4 NSaved=   4.
 NSaved= 4 IEnMin= 4 EnMin= -382.677099903958     IErMin= 4 ErrMin= 2.99D-03
 ErrMax= 2.99D-03  0.00D+00 EMaxC= 1.00D-01 BMatC= 1.15D-03 BMatP= 2.54D-03
 IDIUse=3 WtCom= 9.70D-01 WtEn= 2.99D-02
 Coeff-Com: -0.116D-01 0.659D-01 0.424D+00 0.522D+00
 Coeff-En:   0.000D+00 0.000D+00 0.341D+00 0.659D+00
 Coeff:     -0.113D-01 0.639D-01 0.421D+00 0.526D+00
 Gap=     0.197 Goal=   None    Shift=    0.000
 RMSDP=2.71D-04 MaxDP=3.90D-03 DE=-1.02D-03 OVMax= 7.22D-03

 Cycle   5  Pass 0  IDiag  1:
 E= -382.678076324259     Delta-E=       -0.000976420301 Rises=F Damp=F
 DIIS: error= 3.79D-04 at cycle   5 NSaved=   5.
 NSaved= 5 IEnMin= 5 EnMin= -382.678076324259     IErMin= 5 ErrMin= 3.79D-04
 ErrMax= 3.79D-04  0.00D+00 EMaxC= 1.00D-01 BMatC= 2.46D-05 BMatP= 1.15D-03
 IDIUse=3 WtCom= 9.96D-01 WtEn= 3.79D-03
 Coeff-Com: -0.359D-02 0.115D-01 0.136D+00 0.217D+00 0.640D+00
 Coeff-En:   0.000D+00 0.000D+00 0.000D+00 0.000D+00 0.100D+01
 Coeff:     -0.358D-02 0.115D-01 0.135D+00 0.216D+00 0.641D+00
 Gap=     0.196 Goal=   None    Shift=    0.000
 RMSDP=4.75D-05 MaxDP=8.07D-04 DE=-9.76D-04 OVMax= 1.63D-03

 Cycle   6  Pass 0  IDiag  1:
 E= -382.678092766679     Delta-E=       -0.000016442420 Rises=F Damp=F
 DIIS: error= 1.62D-04 at cycle   6 NSaved=   6.
 NSaved= 6 IEnMin= 6 EnMin= -382.678092766679     IErMin= 6 ErrMin= 1.62D-04
 ErrMax= 1.62D-04  0.00D+00 EMaxC= 1.00D-01 BMatC= 5.01D-06 BMatP= 2.46D-05
 IDIUse=3 WtCom= 9.98D-01 WtEn= 1.62D-03
 Coeff-Com: -0.116D-02 0.164D-02 0.464D-01 0.867D-01 0.372D+00 0.494D+00
 Coeff-En:   0.000D+00 0.000D+00 0.000D+00 0.000D+00 0.142D+00 0.858D+00
 Coeff:     -0.116D-02 0.163D-02 0.463D-01 0.865D-01 0.372D+00 0.495D+00
 Gap=     0.197 Goal=   None    Shift=    0.000
 RMSDP=1.70D-05 MaxDP=3.26D-04 DE=-1.64D-05 OVMax= 6.50D-04

 Cycle   7  Pass 0  IDiag  1:
 E= -382.678097329178     Delta-E=       -0.000004562499 Rises=F Damp=F
 DIIS: error= 9.26D-06 at cycle   7 NSaved=   7.
 NSaved= 7 IEnMin= 7 EnMin= -382.678097329178     IErMin= 7 ErrMin= 9.26D-06
 ErrMax= 9.26D-06  0.00D+00 EMaxC= 1.00D-01 BMatC= 2.32D-08 BMatP= 5.01D-06
 IDIUse=1 WtCom= 1.00D+00 WtEn= 0.00D+00
 Coeff-Com: -0.150D-03-0.790D-04 0.682D-02 0.146D-01 0.651D-01 0.121D+00
 Coeff-Com:  0.792D+00
 Coeff:     -0.150D-03-0.790D-04 0.682D-02 0.146D-01 0.651D-01 0.121D+00
 Coeff:      0.792D+00
 Gap=     0.197 Goal=   None    Shift=    0.000
 RMSDP=1.41D-06 MaxDP=1.76D-05 DE=-4.56D-06 OVMax= 3.05D-05

 Initial convergence to 1.0D-05 achieved.  Increase integral accuracy.
 Cycle   8  Pass 1  IDiag  1:
 E= -382.678117601764     Delta-E=       -0.000020272586 Rises=F Damp=F
 DIIS: error= 2.97D-05 at cycle   1 NSaved=   1.
 NSaved= 1 IEnMin= 1 EnMin= -382.678117601764     IErMin= 1 ErrMin= 2.97D-05
 ErrMax= 2.97D-05  0.00D+00 EMaxC= 1.00D-01 BMatC= 4.36D-08 BMatP= 4.36D-08
 IDIUse=1 WtCom= 1.00D+00 WtEn= 0.00D+00
 Coeff-Com:  0.100D+01
 Coeff:      0.100D+01
 Gap=     0.197 Goal=   None    Shift=    0.000
 RMSDP=1.41D-06 MaxDP=1.76D-05 DE=-2.03D-05 OVMax= 7.47D-05

 Cycle   9  Pass 1  IDiag  1:
 E= -382.678117660283     Delta-E=       -0.000000058518 Rises=F Damp=F
 DIIS: error= 3.93D-06 at cycle   2 NSaved=   2.
 NSaved= 2 IEnMin= 2 EnMin= -382.678117660283     IErMin= 2 ErrMin= 3.93D-06
 ErrMax= 3.93D-06  0.00D+00 EMaxC= 1.00D-01 BMatC= 1.82D-09 BMatP= 4.36D-08
 IDIUse=1 WtCom= 1.00D+00 WtEn= 0.00D+00
 Coeff-Com:  0.285D-01 0.972D+00
 Coeff:      0.285D-01 0.972D+00
 Gap=     0.197 Goal=   None    Shift=    0.000
 RMSDP=7.75D-07 MaxDP=1.41D-05 DE=-5.85D-08 OVMax= 2.65D-05

 Cycle  10  Pass 1  IDiag  1:
 E= -382.678117659526     Delta-E=        0.000000000756 Rises=F Damp=F
 DIIS: error= 5.69D-06 at cycle   3 NSaved=   3.
 NSaved= 3 IEnMin= 2 EnMin= -382.678117660283     IErMin= 2 ErrMin= 3.93D-06
 ErrMax= 5.69D-06  0.00D+00 EMaxC= 1.00D-01 BMatC= 2.79D-09 BMatP= 1.82D-09
 IDIUse=1 WtCom= 1.00D+00 WtEn= 0.00D+00
 Coeff-Com: -0.234D-01 0.566D+00 0.458D+00
 Coeff:     -0.234D-01 0.566D+00 0.458D+00
 Gap=     0.197 Goal=   None    Shift=    0.000
 RMSDP=3.85D-07 MaxDP=7.96D-06 DE= 7.56D-10 OVMax= 1.60D-05

 Cycle  11  Pass 1  IDiag  1:
 E= -382.678117662123     Delta-E=       -0.000000002596 Rises=F Damp=F
 DIIS: error= 3.75D-07 at cycle   4 NSaved=   4.
 NSaved= 4 IEnMin= 4 EnMin= -382.678117662123     IErMin= 4 ErrMin= 3.75D-07
 ErrMax= 3.75D-07  0.00D+00 EMaxC= 1.00D-01 BMatC= 3.10D-11 BMatP= 1.82D-09
 IDIUse=1 WtCom= 1.00D+00 WtEn= 0.00D+00
 Coeff-Com: -0.940D-02 0.170D+00 0.174D+00 0.666D+00
 Coeff:     -0.940D-02 0.170D+00 0.174D+00 0.666D+00
 Gap=     0.197 Goal=   None    Shift=    0.000
 RMSDP=5.12D-08 MaxDP=8.54D-07 DE=-2.60D-09 OVMax= 1.78D-06

 Cycle  12  Pass 1  IDiag  1:
 E= -382.678117662153     Delta-E=       -0.000000000030 Rises=F Damp=F
 DIIS: error= 1.37D-07 at cycle   5 NSaved=   5.
 NSaved= 5 IEnMin= 5 EnMin= -382.678117662153     IErMin= 5 ErrMin= 1.37D-07
 ErrMax= 1.37D-07  0.00D+00 EMaxC= 1.00D-01 BMatC= 3.02D-12 BMatP= 3.10D-11
 IDIUse=1 WtCom= 1.00D+00 WtEn= 0.00D+00
 Coeff-Com: -0.341D-02 0.557D-01 0.619D-01 0.312D+00 0.574D+00
 Coeff:     -0.341D-02 0.557D-01 0.619D-01 0.312D+00 0.574D+00
 Gap=     0.197 Goal=   None    Shift=    0.000
 RMSDP=1.72D-08 MaxDP=3.46D-07 DE=-3.00D-11 OVMax= 6.06D-07

 Cycle  13  Pass 1  IDiag  1:
 E= -382.678117662154     Delta-E=       -0.000000000001 Rises=F Damp=F
 DIIS: error= 6.89D-08 at cycle   6 NSaved=   6.
 NSaved= 6 IEnMin= 6 EnMin= -382.678117662154     IErMin= 6 ErrMin= 6.89D-08
 ErrMax= 6.89D-08  0.00D+00 EMaxC= 1.00D-01 BMatC= 6.44D-13 BMatP= 3.02D-12
 IDIUse=1 WtCom= 1.00D+00 WtEn= 0.00D+00
 Coeff-Com:  0.609D-04-0.553D-02-0.257D-02 0.359D-01 0.331D+00 0.641D+00
 Coeff:      0.609D-04-0.553D-02-0.257D-02 0.359D-01 0.331D+00 0.641D+00
 Gap=     0.197 Goal=   None    Shift=    0.000
 RMSDP=5.58D-09 MaxDP=1.25D-07 DE=-9.09D-13 OVMax= 1.81D-07

 SCF Done:  E(RB3LYP) =  -382.678117662     A.U. after   13 cycles
            NFock= 13  Conv=0.56D-08     -V/T= 2.0092
 KE= 3.792053691643D+02 PE=-1.580714593045D+03 EE= 4.749159435328D+02
 Leave Link  502 at Wed Mar 18 11:16:14 2015, MaxMem=   268435456 cpu:        30.0
 (Enter /opt/g09.d01/l801.exe)
 DoSCS=F DFT=T ScalE2(SS,OS)=  1.000000  1.000000
 Range of M.O.s used for correlation:     1   132
 NBasis=   132 NAE=    29 NBE=    29 NFC=     0 NFV=     0
 NROrb=    132 NOA=    29 NOB=    29 NVA=   103 NVB=   103
 Leave Link  801 at Wed Mar 18 11:16:14 2015, MaxMem=   268435456 cpu:         0.2
 (Enter /opt/g09.d01/l1101.exe)
 Using compressed storage, NAtomX=    14.
 Will process     15 centers per pass.
 Leave Link 1101 at Wed Mar 18 11:16:14 2015, MaxMem=   268435456 cpu:         1.4
 (Enter /opt/g09.d01/l1102.exe)
 Symmetrizing basis deriv contribution to polar:
 IMax=3 JMax=2 DiffMx= 0.00D+00
 Leave Link 1102 at Wed Mar 18 11:16:15 2015, MaxMem=   268435456 cpu:         0.7
 (Enter /opt/g09.d01/l1110.exe)
 Forming Gx(P) for the SCF density, NAtomX=    14.
 Integral derivatives from FoFJK, PRISM(SPDF).
 Do as many integral derivatives as possible in FoFJK.
 G2DrvN: MDV=     268435240.
 G2DrvN: will do    15 centers at a time, making    1 passes.
 Calling FoFCou, ICntrl=  3107 FMM=F I1Cent=   0 AccDes= 0.00D+00.
 FoFJK:  IHMeth= 1 ICntrl=    3107 DoSepK=F KAlg= 0 I1Cent=   0 FoldK=F
 IRaf=         0 NMat=   1 IRICut=       1 DoRegI=T DoRafI=F ISym2E= 0.
 FoFCou: FMM=F IPFlag=           0 FMFlag=      100000 FMFlg1=           0
         NFxFlg=           0 DoJE=F BraDBF=F KetDBF=F FulRan=T
         wScrn=  0.000000 ICntrl=    3107 IOpCl=  0 I1Cent=           0 NGrid=           0
         NMat0=    1 NMatS0=      1 NMatT0=    0 NMatD0=    1 NMtDS0=    0 NMtDT0=    0
 Symmetry not used in FoFCou.
 End of G2Drv F.D. properties file   721 does not exist.
 End of G2Drv F.D. properties file   722 does not exist.
 End of G2Drv F.D. properties file   788 does not exist.
 Leave Link 1110 at Wed Mar 18 11:16:26 2015, MaxMem=   268435456 cpu:        84.9
 (Enter /opt/g09.d01/l1002.exe)
 Minotr:  Closed shell wavefunction.
          IDoAtm=11111111111111
          Direct CPHF calculation.
          Differentiating once with respect to electric field.
                with respect to dipole field.
          Differentiating once with respect to nuclear coordinates.
          Requested convergence is 1.0D-08 RMS, and 1.0D-07 maximum.
          Secondary convergence is 1.0D-12 RMS, and 1.0D-12 maximum.
          NewPWx=T KeepS1=F KeepF1=F KeepIn=T MapXYZ=F SortEE=F KeepMc=T.
          MDV=     268435180 using IRadAn=       2.
 Generate precomputed XC quadrature information.
 Keep R1 ints in memory in canonical form, NReq=39711741.
 FoFCou: FMM=F IPFlag=           0 FMFlag=           0 FMFlg1=           0
         NFxFlg=           0 DoJE=F BraDBF=F KetDBF=F FulRan=T
         wScrn=  0.000000 ICntrl=     600 IOpCl=  0 I1Cent=           0 NGrid=           0
         NMat0=    1 NMatS0=   8778 NMatT0=    0 NMatD0=    1 NMtDS0=    0 NMtDT0=    0
 Symmetry not used in FoFCou.
          Solving linear equations simultaneously, MaxMat=       0.
          There are    45 degrees of freedom in the 1st order CPHF.  IDoFFX=6 NUNeed=     3.
     42 vectors produced by pass  0 Test12= 6.64D-15 2.22D-09 XBig12= 1.12D+02 6.77D+00.
 AX will form    42 AO Fock derivatives at one time.
     42 vectors produced by pass  1 Test12= 6.64D-15 2.22D-09 XBig12= 1.57D+01 1.05D+00.
     42 vectors produced by pass  2 Test12= 6.64D-15 2.22D-09 XBig12= 1.31D-01 6.60D-02.
     42 vectors produced by pass  3 Test12= 6.64D-15 2.22D-09 XBig12= 3.35D-04 3.41D-03.
     42 vectors produced by pass  4 Test12= 6.64D-15 2.22D-09 XBig12= 3.12D-07 1.37D-04.
     31 vectors produced by pass  5 Test12= 6.64D-15 2.22D-09 XBig12= 2.65D-10 4.21D-06.
      4 vectors produced by pass  6 Test12= 6.64D-15 2.22D-09 XBig12= 1.71D-13 7.52D-08.
 InvSVY:  IOpt=1 It=  1 EMax= 1.07D-14
 Solved reduced A of dimension   245 with    45 vectors.
 FullF1:  Do perturbations    1 to     3.
 Isotropic polarizability for W=    0.000000       64.10 Bohr**3.
 End of Minotr F.D. properties file   721 does not exist.
 End of Minotr F.D. properties file   722 does not exist.
 End of Minotr F.D. properties file   788 does not exist.
 Leave Link 1002 at Wed Mar 18 11:16:36 2015, MaxMem=   268435456 cpu:        77.0
 (Enter /opt/g09.d01/l601.exe)
 Copying SCF densities to generalized density rwf, IOpCl= 0 IROHF=0.

 **********************************************************************

            Population analysis using the SCF density.

 **********************************************************************

 Alpha  occ. eigenvalues --  -19.17252 -19.17252 -10.24192 -10.24191 -10.19084
 Alpha  occ. eigenvalues --  -10.19084 -10.18640 -10.18640  -1.05305  -1.05208
 Alpha  occ. eigenvalues --   -0.84392  -0.74918  -0.72831  -0.63471  -0.59878
 Alpha  occ. eigenvalues --   -0.54999  -0.54026  -0.47220  -0.44159  -0.43247
 Alpha  occ. eigenvalues --   -0.42354  -0.40933  -0.38174  -0.37986  -0.36462
 Alpha  occ. eigenvalues --   -0.33648  -0.30195  -0.25181  -0.19878
 Alpha virt. eigenvalues --   -0.00222   0.02988   0.06472   0.07878   0.09748
 Alpha virt. eigenvalues --    0.14453   0.16885   0.17528   0.19491   0.23956
 Alpha virt. eigenvalues --    0.24403   0.31423   0.34153   0.34721   0.35945
 Alpha virt. eigenvalues --    0.50744   0.52105   0.52619   0.53935   0.55385
 Alpha virt. eigenvalues --    0.58396   0.59656   0.60408   0.60684   0.62484
 Alpha virt. eigenvalues --    0.63128   0.66101   0.66550   0.68362   0.73917
 Alpha virt. eigenvalues --    0.77202   0.77443   0.83558   0.83594   0.86444
 Alpha virt. eigenvalues --    0.88719   0.90853   0.92318   0.94473   0.94588
 Alpha virt. eigenvalues --    0.96564   0.97646   0.99279   1.04163   1.05922
 Alpha virt. eigenvalues --    1.15949   1.19262   1.20115   1.21681   1.24029
 Alpha virt. eigenvalues --    1.30078   1.33087   1.35068   1.39356   1.45235
 Alpha virt. eigenvalues --    1.45624   1.45751   1.50917   1.66751   1.67188
 Alpha virt. eigenvalues --    1.72440   1.74952   1.76883   1.81303   1.85022
 Alpha virt. eigenvalues --    1.87508   1.91124   1.92897   1.96092   1.98743
 Alpha virt. eigenvalues --    1.99616   2.05660   2.06813   2.12072   2.14555
 Alpha virt. eigenvalues --    2.23608   2.26142   2.30767   2.31541   2.37852
 Alpha virt. eigenvalues --    2.44037   2.45613   2.50881   2.52454   2.59563
 Alpha virt. eigenvalues --    2.65247   2.66066   2.67834   2.72892   2.82486
 Alpha virt. eigenvalues --    2.89806   2.92758   2.98105   3.15016   3.42411
 Alpha virt. eigenvalues --    3.92685   3.95376   4.09524   4.11460   4.27195
 Alpha virt. eigenvalues --    4.32873   4.46199   4.79491
          Condensed to atoms (all electrons):
               1          2          3          4          5          6
     1  C    5.081072   0.499173  -0.068184  -0.038700  -0.020727   0.491936
     2  C    0.499173   4.494455   0.551811  -0.020727  -0.038665  -0.008805
     3  C   -0.068184   0.551811   4.953161   0.491940  -0.008805  -0.031558
     4  C   -0.038700  -0.020727   0.491940   5.081069   0.499171  -0.068185
     5  C   -0.020727  -0.038665  -0.008805   0.499171   4.494454   0.551813
     6  C    0.491936  -0.008805  -0.031558  -0.068185   0.551813   4.953162
     7  H   -0.038623   0.003557   0.000134   0.007006  -0.034067   0.344344
     8  H    0.345773  -0.046474   0.005461   0.000465   0.004285  -0.034930
     9  O   -0.059585   0.281232  -0.050528   0.003162   0.000219   0.004413
    10  H    0.007005  -0.034067   0.344344  -0.038622   0.003557   0.000134
    11  H    0.000464   0.004285  -0.034929   0.345772  -0.046474   0.005461
    12  O    0.003162   0.000219   0.004413  -0.059584   0.281230  -0.050529
    13  H   -0.004606  -0.031405   0.006190  -0.000174  -0.000036   0.000568
    14  H   -0.000174  -0.000036   0.000568  -0.004606  -0.031404   0.006190
               7          8          9         10         11         12
     1  C   -0.038623   0.345773  -0.059585   0.007005   0.000464   0.003162
     2  C    0.003557  -0.046474   0.281232  -0.034067   0.004285   0.000219
     3  C    0.000134   0.005461  -0.050528   0.344344  -0.034929   0.004413
     4  C    0.007006   0.000465   0.003162  -0.038622   0.345772  -0.059584
     5  C   -0.034067   0.004285   0.000219   0.003557  -0.046474   0.281230
     6  C    0.344344  -0.034930   0.004413   0.000134   0.005461  -0.050529
     7  H    0.584981  -0.006566  -0.000044   0.000014  -0.000192  -0.001215
     8  H   -0.006566   0.610784  -0.005456  -0.000192   0.000013  -0.000057
     9  O   -0.000044  -0.005456   8.234630  -0.001215  -0.000057   0.000000
    10  H    0.000014  -0.000192  -0.001215   0.584981  -0.006566  -0.000044
    11  H   -0.000192   0.000013  -0.000057  -0.006566   0.610785  -0.005456
    12  O   -0.001215  -0.000057   0.000000  -0.000044  -0.005456   8.234636
    13  H   -0.000013   0.006871   0.243181  -0.000330   0.000006   0.000000
    14  H   -0.000330   0.000006   0.000000  -0.000013   0.006871   0.243179
              13         14
     1  C   -0.004606  -0.000174
     2  C   -0.031405  -0.000036
     3  C    0.006190   0.000568
     4  C   -0.000174  -0.004606
     5  C   -0.000036  -0.031404
     6  C    0.000568   0.006190
     7  H   -0.000013  -0.000330
     8  H    0.006871   0.000006
     9  O    0.243181   0.000000
    10  H   -0.000330  -0.000013
    11  H    0.000006   0.006871
    12  O    0.000000   0.243179
    13  H    0.374273   0.000000
    14  H    0.000000   0.374275
 Mulliken charges:
               1
     1  C   -0.197988
     2  C    0.345448
     3  C   -0.164016
     4  C   -0.197987
     5  C    0.345450
     6  C   -0.164015
     7  H    0.141014
     8  H    0.120020
     9  O   -0.649953
    10  H    0.141014
    11  H    0.120019
    12  O   -0.649955
    13  H    0.405476
    14  H    0.405475
 Sum of Mulliken charges =   0.00000
 Mulliken charges with hydrogens summed into heavy atoms:
               1
     1  C   -0.077969
     2  C    0.345448
     3  C   -0.023002
     4  C   -0.077967
     5  C    0.345450
     6  C   -0.023001
     9  O   -0.244477
    12  O   -0.244480
 APT charges:
               1
     1  C   -0.044602
     2  C    0.456202
     3  C   -0.049060
     4  C   -0.044597
     5  C    0.456197
     6  C   -0.049062
     7  H    0.041922
     8  H    0.012423
     9  O   -0.697156
    10  H    0.041921
    11  H    0.012421
    12  O   -0.697153
    13  H    0.280273
    14  H    0.280272
 Sum of APT charges =   0.00000
 APT charges with hydrogens summed into heavy atoms:
               1
     1  C   -0.032179
     2  C    0.456202
     3  C   -0.007139
     4  C   -0.032176
     5  C    0.456197
     6  C   -0.007140
     9  O   -0.416884
    12  O   -0.416881
 Electronic spatial extent (au):  <R**2>=           2739.8662
 Charge=              0.0000 electrons
 Dipole moment (field-independent basis, Debye):
    X=             -0.0007    Y=              0.0002    Z=             -0.0046  Tot=              0.0047
 Quadrupole moment (field-independent basis, Debye-Ang):
   XX=            -47.4899   YY=            -33.9732   ZZ=            -48.6775
   XY=             -7.4986   XZ=             -0.5439   YZ=              1.7793
 Traceless Quadrupole moment (field-independent basis, Debye-Ang):
   XX=             -4.1097   YY=              9.4070   ZZ=             -5.2973
   XY=             -7.4986   XZ=             -0.5439   YZ=              1.7793
 Octapole moment (field-independent basis, Debye-Ang**2):
  XXX=            311.5351  YYY=           -197.1930  ZZZ=            -50.1933  XYY=             45.2633
  XXY=            -59.1022  XXZ=            -13.9168  XZZ=            106.0539  YZZ=            -92.9588
  YYZ=             -4.8403  XYZ=             -7.5457
 Hexadecapole moment (field-independent basis, Debye-Ang**3):
 XXXX=          -1740.5124 YYYY=          -1259.0494 ZZZZ=            -87.9417 XXXY=            371.9516
 XXXZ=            114.1785 YYYX=            217.8021 YYYZ=            -34.1078 ZZZX=            132.3449
 ZZZY=            -98.4171 XXYY=           -431.9806 XXZZ=           -315.0516 YYZZ=           -313.8941
 XXYZ=             -5.3094 YYXZ=              8.2382 ZZXY=            168.4065
 N-N= 3.439151626862D+02 E-N=-1.580714596132D+03  KE= 3.792053691643D+02
  Exact polarizability:  75.681   3.952  90.688  -7.271   2.532  25.918
 Approx polarizability: 130.892   7.796 147.416 -13.387   4.076  39.056
 No NMR shielding tensors so no spin-rotation constants.
 Leave Link  601 at Wed Mar 18 11:16:36 2015, MaxMem=   268435456 cpu:         1.7
 (Enter /opt/g09.d01/l701.exe)
 Compute integral second derivatives.
 ... and contract with generalized density number  0.
 Leave Link  701 at Wed Mar 18 11:16:37 2015, MaxMem=   268435456 cpu:         1.8
 (Enter /opt/g09.d01/l702.exe)
 L702 exits ... SP integral derivatives will be done elsewhere.
 Leave Link  702 at Wed Mar 18 11:16:37 2015, MaxMem=   268435456 cpu:         0.2
 (Enter /opt/g09.d01/l703.exe)
 Compute integral second derivatives, UseDBF=F ICtDFT=           0.
 Integral derivatives from FoFJK, PRISM(SPDF).
 Calling FoFJK, ICntrl=    100127 FMM=F ISym2X=0 I1Cent= 0 IOpClX= 0 NMat=1 NMatS=1 NMatT=0.
 FoFJK:  IHMeth= 1 ICntrl=  100127 DoSepK=F KAlg= 0 I1Cent=   0 FoldK=F
 IRaf=         0 NMat=   1 IRICut=       1 DoRegI=T DoRafI=F ISym2E= 0.
 FoFCou: FMM=F IPFlag=           0 FMFlag=      100000 FMFlg1=         800
         NFxFlg=           0 DoJE=F BraDBF=F KetDBF=F FulRan=T
         wScrn=  0.000000 ICntrl=  100127 IOpCl=  0 I1Cent=           0 NGrid=           0
         NMat0=    1 NMatS0=      1 NMatT0=    0 NMatD0=    1 NMtDS0=    0 NMtDT0=    0
 Symmetry not used in FoFCou.
 Leave Link  703 at Wed Mar 18 11:16:56 2015, MaxMem=   268435456 cpu:       146.9
 (Enter /opt/g09.d01/l716.exe)
 Dipole        =-2.65850564D-04 8.30068577D-05-1.82203822D-03
 Polarizability= 7.56809043D+01 3.95235119D+00 9.06875370D+01
                -7.27052000D+00 2.53233884D+00 2.59184627D+01
 Full mass-weighted force constant matrix:
 Low frequencies ---  -40.9615  -14.8543   -1.6372   -0.0015   -0.0002    0.0008
 Low frequencies ---  155.3201  221.6348  224.4409
 Diagonal vibrational polarizability:
        7.1253231      16.0560313     135.5327728
 Harmonic frequencies (cm**-1), IR intensities (KM/Mole), Raman scattering
 activities (A**4/AMU), depolarization ratios for plane and unpolarized
 incident light, reduced masses (AMU), force constants (mDyne/A),
 and normal coordinates:
                           1         2         3         4         5
                           A         A         A         A         A
       Frequencies ---   155.3201  219.8038  224.4409  339.0651  369.7763
    Reduced masses ---     4.8968    1.0898    1.1632    4.9759    6.9823
   Force constants ---     0.0696    0.0310    0.0345    0.3370    0.5625
    IR Intensities ---     3.8801    0.0064  244.9508   19.1501    0.0000
 Coord Atom Element:
   1     1     6          0.02609   0.00243  -0.00008   0.12027   0.03616
   2     1     6         -0.00841  -0.00075  -0.00009  -0.08822  -0.01126
   3     1     6          0.17781   0.01525  -0.00264  -0.02225   0.24160
   1     2     6          0.00579  -0.00015  -0.00057   0.10396   0.04381
   2     2     6         -0.00195  -0.00006   0.00008  -0.04700  -0.01400
   3     2     6          0.03961  -0.00228  -0.00569  -0.01706   0.29487
   1     3     6          0.02547  -0.00161  -0.00301   0.14068   0.03674
   2     3     6         -0.00823   0.00039   0.00094  -0.04021  -0.01215
   3     3     6          0.17364  -0.01185  -0.02273  -0.02169   0.24897
   1     4     6          0.02605  -0.00237  -0.00013   0.12027  -0.03628
   2     4     6         -0.00841   0.00065  -0.00011  -0.08822   0.01157
   3     4     6          0.17785  -0.01518  -0.00277  -0.02222  -0.24159
   1     5     6          0.00579   0.00022  -0.00060   0.10391  -0.04394
   2     5     6         -0.00187  -0.00001   0.00012  -0.04698   0.01423
   3     5     6          0.03963   0.00233  -0.00565  -0.01739  -0.29484
   1     6     6          0.02545   0.00170  -0.00302   0.14060  -0.03690
   2     6     6         -0.00822  -0.00044   0.00099  -0.04018   0.01229
   3     6     6          0.17364   0.01212  -0.02259  -0.02221  -0.24890
   1     7     1          0.02500   0.00651  -0.00607   0.14385  -0.04275
   2     7     1         -0.00808  -0.00183   0.00194  -0.06603   0.01521
   3     7     1          0.17055   0.04498  -0.04342  -0.02373  -0.28817
   1     8     1          0.02884   0.01005   0.00369   0.12595   0.04932
   2     8     1         -0.00923  -0.00293  -0.00115  -0.08240  -0.01495
   3     8     1          0.19601   0.06522   0.02188  -0.02341   0.32782
   1     9     8         -0.04162   0.00681   0.00935  -0.25712  -0.03058
   2     9     8          0.01334  -0.00200  -0.00269   0.14787   0.01007
   3     9     8         -0.28336   0.04860   0.06862   0.04381  -0.20624
   1    10     1          0.02503  -0.00638  -0.00610   0.14399   0.04258
   2    10     1         -0.00812   0.00175   0.00191  -0.06607  -0.01507
   3    10     1          0.17061  -0.04452  -0.04388  -0.02279   0.28826
   1    11     1          0.02876  -0.00994   0.00344   0.12596  -0.04945
   2    11     1         -0.00927   0.00289  -0.00123  -0.08241   0.01527
   3    11     1          0.19617  -0.06541   0.02129  -0.02327  -0.32784
   1    12     8         -0.04144  -0.00713   0.00939  -0.25707   0.03092
   2    12     8          0.01358   0.00229  -0.00288   0.14786  -0.01055
   3    12     8         -0.28331  -0.04929   0.06810   0.04413   0.20617
   1    13     1         -0.07716  -0.10026  -0.10201  -0.53365  -0.03394
   2    13     1          0.02394   0.03119   0.03145  -0.10985   0.00914
   3    13     1         -0.52600  -0.68945  -0.69689   0.08081  -0.21828
   1    14     1         -0.07708   0.10238  -0.10253  -0.53385   0.03376
   2    14     1          0.02535  -0.03308   0.03269  -0.10979  -0.01012
   3    14     1         -0.52711   0.69537  -0.68982   0.07930   0.21797
                           6         7         8         9        10
                           A         A         A         A         A
       Frequencies ---   425.9468  444.6408  470.8205  523.3410  659.5394
    Reduced masses ---     3.2464    3.6638    8.2555    2.2407    6.8628
   Force constants ---     0.3470    0.4268    1.0782    0.3616    1.7589
    IR Intensities ---     1.3700    0.0000    0.0000   10.0060    0.0000
 Coord Atom Element:
   1     1     6         -0.03337   0.16683   0.10648  -0.00495  -0.01881
   2     1     6          0.01068  -0.01346  -0.02187   0.00165   0.34524
   3     1     6         -0.22417  -0.02628  -0.01653  -0.03387   0.01856
   1     2     6          0.00055   0.16237   0.10704   0.03247  -0.07467
   2     2     6         -0.00011  -0.05190   0.28087  -0.01029   0.03985
   3     2     6          0.00639  -0.02691  -0.00256   0.22111   0.01361
   1     3     6          0.03217   0.09342  -0.11891  -0.00670  -0.29347
   2     3     6         -0.01020  -0.11046   0.10765   0.00215  -0.19542
   3     3     6          0.22162  -0.01896   0.02240  -0.04500   0.03331
   1     4     6         -0.03273  -0.16698  -0.10641  -0.00503   0.01878
   2     4     6          0.01076   0.01350   0.02185   0.00162  -0.34524
   3     4     6         -0.22425   0.02525   0.01697  -0.03386  -0.01872
   1     5     6          0.00110  -0.16237  -0.10711   0.03232   0.07467
   2     5     6         -0.00037   0.05190  -0.28085  -0.01059  -0.03985
   3     5     6          0.00631   0.02687   0.00208   0.22112  -0.01362
   1     6     6          0.03252  -0.09328   0.11893  -0.00665   0.29349
   2     6     6         -0.01073   0.11041  -0.10766   0.00212   0.19541
   3     6     6          0.22155   0.01992  -0.02227  -0.04500  -0.03319
   1     7     1          0.06157  -0.11098   0.09908  -0.06880   0.29765
   2     7     1         -0.02056   0.33915   0.09569   0.02228   0.14366
   3     7     1          0.41942   0.03412  -0.00929  -0.46883  -0.03543
   1     8     1         -0.06665   0.30591  -0.10070  -0.06745  -0.08462
   2     8     1          0.02099   0.08672  -0.16237   0.02166   0.29931
   3     8     1         -0.44872  -0.04231   0.00773  -0.45974   0.02504
   1     9     8          0.00145  -0.13200   0.19285  -0.00639  -0.08928
   2     9     8         -0.00058   0.10982   0.33177   0.00218   0.04268
   3     9     8          0.00579   0.02484  -0.01261  -0.04463   0.01501
   1    10     1          0.06110   0.11131  -0.09891  -0.06871  -0.29757
   2    10     1         -0.01925  -0.33925  -0.09573   0.02198  -0.14369
   3    10     1          0.41952  -0.03188   0.01040  -0.46878   0.03595
   1    11     1         -0.06539  -0.30614   0.10094  -0.06722   0.08461
   2    11     1          0.02151  -0.08664   0.16230   0.02183  -0.29933
   3    11     1         -0.44884   0.04067  -0.00618  -0.45971  -0.02502
   1    12     8          0.00086   0.13200  -0.19290  -0.00649   0.08928
   2    12     8         -0.00025  -0.10982  -0.33176   0.00199  -0.04267
   3    12     8          0.00589  -0.02481   0.01237  -0.04463  -0.01502
   1    13     1         -0.01432  -0.37720   0.20852  -0.00870  -0.16706
   2    13     1          0.00517  -0.11680   0.35298   0.00226  -0.03158
   3    13     1         -0.10780   0.05308  -0.01421  -0.05688   0.02328
   1    14     1         -0.01608   0.37724  -0.20852  -0.00831   0.16709
   2    14     1          0.00493   0.11679  -0.35299   0.00257   0.03157
   3    14     1         -0.10764  -0.05282   0.01430  -0.05694  -0.02308
                          11        12        13        14        15
                           A         A         A         A         A
       Frequencies ---   702.1646  766.6677  801.0280  825.6920  868.9744
    Reduced masses ---     4.4238    5.7709    1.2555    1.7354    6.5406
   Force constants ---     1.2851    1.9985    0.4746    0.6971    2.9099
    IR Intensities ---     0.0001   50.3729    0.0000   57.8965    0.0000
 Coord Atom Element:
   1     1     6         -0.02419   0.05643   0.01209  -0.01478  -0.24736
   2     1     6          0.00720   0.20701  -0.00378   0.00483   0.20477
   3     1     6         -0.16527   0.00141   0.08271  -0.10081   0.04598
   1     2     6          0.04581  -0.03282   0.00027   0.01870  -0.01154
   2     2     6         -0.01475  -0.05661  -0.00011  -0.00599  -0.03193
   3     2     6          0.31187   0.00192   0.00184   0.12787   0.00017
   1     3     6         -0.02319   0.13734  -0.00923  -0.01030   0.30443
   2     3     6          0.00797   0.16379   0.00305   0.00342  -0.08262
   3     3     6         -0.16148  -0.01216  -0.06452  -0.07052  -0.04811
   1     4     6          0.02411   0.05648  -0.01197  -0.01461   0.24740
   2     4     6         -0.00715   0.20699   0.00395   0.00478  -0.20478
   3     4     6          0.16528   0.00172  -0.08262  -0.10096  -0.04570
   1     5     6         -0.04578  -0.03279  -0.00038   0.01870   0.01151
   2     5     6          0.01494  -0.05661   0.00013  -0.00608   0.03195
   3     5     6         -0.31186   0.00209  -0.00197   0.12787  -0.00037
   1     6     6          0.02326   0.13732   0.00939  -0.01046  -0.30441
   2     6     6         -0.00803   0.16381  -0.00301   0.00342   0.08261
   3     6     6          0.16145  -0.01232   0.06457  -0.07041   0.04830
   1     7     1          0.06215   0.11943  -0.06240   0.05504  -0.29999
   2     7     1         -0.02060   0.36002   0.02025  -0.01768  -0.15405
   3     7     1          0.42672  -0.00020  -0.42496   0.37634   0.03891
   1     8     1         -0.05698   0.19073  -0.07961   0.08218  -0.06730
   2     8     1          0.01764   0.29700   0.02577  -0.02616   0.34412
   3     8     1         -0.38838  -0.01358  -0.54362   0.55981   0.02511
   1     9     8         -0.00410  -0.13627   0.00025  -0.00357   0.07459
   2     9     8          0.00112  -0.26410  -0.00013   0.00108   0.16218
   3     9     8         -0.02912   0.00770   0.00205  -0.02482  -0.00334
   1    10     1         -0.06200   0.11915   0.06235   0.05517   0.29998
   2    10     1          0.02046   0.36010  -0.01991  -0.01745   0.15402
   3    10     1         -0.42670  -0.00210   0.42460   0.37693  -0.03904
   1    11     1          0.05670   0.19051   0.07944   0.08222   0.06710
   2    11     1         -0.01773   0.29706  -0.02571  -0.02645  -0.34405
   3    11     1          0.38838  -0.01509   0.54311   0.56059  -0.02643
   1    12     8          0.00412  -0.13632  -0.00037  -0.00368  -0.07461
   2    12     8         -0.00119  -0.26408  -0.00007   0.00105  -0.16218
   3    12     8          0.02911   0.00737  -0.00201  -0.02481   0.00321
   1    13     1         -0.00981  -0.06372  -0.00604  -0.00403   0.04379
   2    13     1          0.00212  -0.20678   0.00187   0.00076   0.13851
   3    13     1         -0.06399  -0.00097  -0.04159  -0.02535   0.00066
   1    14     1          0.00929  -0.06367   0.00621  -0.00370  -0.04375
   2    14     1         -0.00283  -0.20679  -0.00199   0.00112  -0.13854
   3    14     1          0.06404  -0.00071   0.04161  -0.02530  -0.00034
                          16        17        18        19        20
                           A         A         A         A         A
       Frequencies ---   914.3487  922.2242 1027.8382 1121.7939 1191.6466
    Reduced masses ---     1.2764    1.3030    2.5450    1.3669    1.4209
   Force constants ---     0.6287    0.6529    1.5841    1.0135    1.1888
    IR Intensities ---     0.0000    0.8985    0.0511   45.9885  282.8575
 Coord Atom Element:
   1     1     6         -0.00971   0.00988   0.15731   0.00429  -0.05738
   2     1     6          0.00319  -0.00314  -0.10144  -0.07571   0.00792
   3     1     6         -0.06519   0.06735  -0.02780  -0.00423   0.00884
   1     2     6          0.00414   0.00253   0.00259  -0.05823   0.05951
   2     2     6         -0.00134  -0.00080   0.01319   0.02044  -0.06420
   3     2     6          0.02855   0.01711   0.00019   0.00959  -0.01189
   1     3     6         -0.01187  -0.01331  -0.17001   0.07488  -0.02134
   2     3     6          0.00383   0.00431   0.06291   0.02884   0.04653
   3     3     6         -0.08197  -0.09105   0.02794  -0.00962   0.00532
   1     4     6          0.00967   0.00987   0.15731   0.00430  -0.05752
   2     4     6         -0.00315  -0.00313  -0.10144  -0.07571   0.00787
   3     4     6          0.06491   0.06762  -0.02781  -0.00419   0.00881
   1     5     6         -0.00416   0.00251   0.00258  -0.05824   0.05957
   2     5     6          0.00137  -0.00083   0.01319   0.02044  -0.06419
   3     5     6         -0.02862   0.01699   0.00013   0.00953  -0.01179
   1     6     6          0.01192  -0.01326  -0.17001   0.07487  -0.02133
   2     6     6         -0.00384   0.00432   0.06290   0.02885   0.04644
   3     6     6          0.08234  -0.09071   0.02796  -0.00965   0.00535
   1     7     1         -0.08010   0.08088  -0.20095   0.04907  -0.04235
   2     7     1          0.02600  -0.02631   0.44520   0.46510   0.29470
   3     7     1         -0.54514   0.55119   0.05078   0.01490   0.02009
   1     8     1          0.06248  -0.06037   0.42248  -0.32292  -0.19831
   2     8     1         -0.01973   0.01930   0.08231  -0.31376  -0.08306
   3     8     1          0.42565  -0.41113  -0.05882   0.03251   0.02508
   1     9     8         -0.00141  -0.00044  -0.00588  -0.00972   0.05610
   2     9     8          0.00051   0.00008  -0.01329  -0.00041   0.01983
   3     9     8         -0.00995  -0.00276   0.00023   0.00137  -0.00722
   1    10     1          0.07960   0.08105  -0.20099   0.04909  -0.04242
   2    10     1         -0.02573  -0.02642   0.44519   0.46495   0.29582
   3    10     1          0.54294   0.55350   0.05052   0.01488   0.02024
   1    11     1         -0.06193  -0.06043   0.42254  -0.32288  -0.19944
   2    11     1          0.01988   0.01958   0.08228  -0.31368  -0.08383
   3    11     1         -0.42400  -0.41290  -0.05842   0.03214   0.02541
   1    12     8          0.00142  -0.00041  -0.00588  -0.00971   0.05612
   2    12     8         -0.00056   0.00012  -0.01329  -0.00041   0.01982
   3    12     8          0.00996  -0.00272   0.00023   0.00141  -0.00730
   1    13     1         -0.00119  -0.00318  -0.00788   0.17873  -0.41991
   2    13     1          0.00027   0.00086  -0.01476   0.16978  -0.40938
   3    13     1         -0.00741  -0.02131   0.00063  -0.01826   0.04222
   1    14     1          0.00105  -0.00322  -0.00788   0.17872  -0.42026
   2    14     1         -0.00046   0.00092  -0.01474   0.16975  -0.40972
   3    14     1          0.00750  -0.02128   0.00054  -0.01820   0.04217
                          21        22        23        24        25
                           A         A         A         A         A
       Frequencies ---  1192.6752 1203.8485 1287.9139 1314.3707 1373.3275
    Reduced masses ---     1.1088    1.2653    2.5293    6.2099    1.3032
   Force constants ---     0.9293    1.0804    2.4719    6.3207    1.4482
    IR Intensities ---     0.0004    0.0001  169.3409    0.0001    0.0000
 Coord Atom Element:
   1     1     6         -0.04740   0.01852   0.04280   0.03408   0.04504
   2     1     6         -0.02217   0.00472  -0.03246   0.17951   0.00423
   3     1     6          0.00591  -0.00252  -0.00779   0.00350  -0.00644
   1     2     6          0.00309  -0.04017   0.11718   0.20924   0.04053
   2     2     6          0.01193   0.05512   0.17468   0.29366  -0.05068
   3     2     6          0.00008   0.00863  -0.00903  -0.01697  -0.00822
   1     3     6          0.00786   0.03040  -0.06337   0.10837   0.00508
   2     3     6         -0.03894  -0.00232   0.05511   0.11538  -0.07342
   3     3     6         -0.00296  -0.00459   0.01192  -0.01039  -0.00424
   1     4     6          0.04728  -0.01849   0.04281  -0.03404  -0.04510
   2     4     6          0.02221  -0.00472  -0.03239  -0.17952  -0.00426
   3     4     6         -0.00590   0.00248  -0.00778  -0.00351   0.00640
   1     5     6         -0.00297   0.04017   0.11726  -0.20917  -0.04048
   2     5     6         -0.01207  -0.05507   0.17480  -0.29351   0.05062
   3     5     6         -0.00015  -0.00850  -0.00888   0.01666   0.00833
   1     6     6         -0.00791  -0.03040  -0.06332  -0.10843  -0.00507
   2     6     6          0.03902   0.00229   0.05518  -0.11533   0.07348
   3     6     6          0.00298   0.00460   0.01194   0.01044   0.00425
   1     7     1         -0.04335  -0.05223  -0.03222  -0.12474   0.02853
   2     7     1          0.51599   0.26630  -0.34713  -0.25116  -0.37613
   3     7     1          0.03085   0.02039  -0.01190   0.00624  -0.02213
   1     8     1         -0.39281   0.20804  -0.41121  -0.35209  -0.34726
   2     8     1         -0.26240   0.13462  -0.34117  -0.05152  -0.27744
   3     8     1          0.04522  -0.02421   0.04434   0.04944   0.03795
   1     9     8          0.00100  -0.05829  -0.03952  -0.07940  -0.03209
   2     9     8         -0.00775  -0.02667  -0.09602  -0.16962   0.01190
   3     9     8         -0.00050   0.00721   0.00132   0.00375   0.00520
   1    10     1          0.04327   0.05226  -0.03227   0.12468  -0.02853
   2    10     1         -0.51549  -0.26652  -0.34718   0.25091   0.37614
   3    10     1         -0.03079  -0.02033  -0.01183  -0.00634   0.02209
   1    11     1          0.39254  -0.20793  -0.41121   0.35164   0.34742
   2    11     1          0.26231  -0.13458  -0.34105   0.05114   0.27750
   3    11     1         -0.04492   0.02427   0.04411  -0.04920  -0.03772
   1    12     8         -0.00088   0.05824  -0.03956   0.07940   0.03207
   2    12     8          0.00779   0.02666  -0.09609   0.16952  -0.01188
   3    12     8          0.00050  -0.00728   0.00121  -0.00355  -0.00527
   1    13     1         -0.02487   0.42862  -0.08018  -0.12888   0.26409
   2    13     1         -0.03134   0.41024  -0.13837  -0.22811   0.27352
   3    13     1          0.00201  -0.04340   0.00477   0.00752  -0.02570
   1    14     1          0.02399  -0.42841  -0.08019   0.12870  -0.26399
   2    14     1          0.03050  -0.41002  -0.13846   0.22791  -0.27340
   3    14     1         -0.00200   0.04334   0.00494  -0.00768   0.02568
                          26        27        28        29        30
                           A         A         A         A         A
       Frequencies ---  1379.7035 1504.3040 1569.9042 1661.1952 1688.3556
    Reduced masses ---     4.1359    2.8352    2.7797    6.1081    6.1493
   Force constants ---     4.6386    3.7801    4.0364    9.9311   10.3277
    IR Intensities ---    52.5944  113.5580  160.9853    0.0000    0.0000
 Coord Atom Element:
   1     1     6          0.18537  -0.00833  -0.13173   0.27240   0.11376
   2     1     6          0.13685   0.13042  -0.07437   0.07356   0.21346
   3     1     6         -0.02071   0.00737   0.01584  -0.03647  -0.00664
   1     2     6         -0.18214   0.17278   0.03962  -0.33274   0.01974
   2     2     6          0.09593  -0.03616   0.19348   0.08657  -0.25313
   3     2     6          0.03104  -0.02693   0.00325   0.05272  -0.01477
   1     3     6         -0.00362  -0.08044   0.06748   0.15397  -0.00054
   2     3     6         -0.20758  -0.15156  -0.10679  -0.04764   0.33001
   3     3     6         -0.00923   0.00461  -0.01493  -0.02482   0.01560
   1     4     6          0.18533  -0.00834  -0.13174  -0.27242  -0.11378
   2     4     6          0.13684   0.13041  -0.07438  -0.07357  -0.21348
   3     4     6         -0.02060   0.00738   0.01578   0.03640   0.00658
   1     5     6         -0.18214   0.17278   0.03964   0.33274  -0.01973
   2     5     6          0.09599  -0.03613   0.19347  -0.08657   0.25312
   3     5     6          0.03124  -0.02701   0.00342  -0.05279   0.01496
   1     6     6         -0.00364  -0.08044   0.06747  -0.15396   0.00054
   2     6     6         -0.20752  -0.15157  -0.10679   0.04765  -0.32998
   3     6     6         -0.00932   0.00460  -0.01498   0.02488  -0.01569
   1     7     1         -0.02756  -0.13892   0.05273  -0.16294  -0.04802
   2     7     1          0.11335   0.43092   0.35770  -0.07131   0.37912
   3     7     1          0.00955   0.04087   0.00935   0.02034   0.02503
   1     8     1         -0.22196  -0.22381   0.38669  -0.20575  -0.27311
   2     8     1         -0.14304   0.00361   0.30344  -0.27275  -0.05692
   3     8     1          0.02590   0.03306  -0.04244   0.01722   0.03743
   1     9     8          0.03984  -0.05769  -0.00040   0.04955  -0.00557
   2     9     8          0.00563  -0.00246  -0.04073   0.00580   0.03254
   3     9     8         -0.00546   0.00828  -0.00181  -0.00691   0.00232
   1    10     1         -0.02764  -0.13894   0.05270   0.16293   0.04807
   2    10     1          0.11371   0.43093   0.35773   0.07131  -0.37919
   3    10     1          0.00919   0.04079   0.00920  -0.02040  -0.02482
   1    11     1         -0.22169  -0.22382   0.38676   0.20580   0.27317
   2    11     1         -0.14274   0.00363   0.30345   0.27274   0.05692
   3    11     1          0.02547   0.03291  -0.04221  -0.01705  -0.03727
   1    12     8          0.03985  -0.05769  -0.00041  -0.04955   0.00556
   2    12     8          0.00562  -0.00247  -0.04072  -0.00580  -0.03253
   3    12     8         -0.00558   0.00833  -0.00189   0.00696  -0.00238
   1    13     1         -0.37776   0.27807  -0.13983  -0.24663   0.13516
   2    13     1         -0.36050   0.28671  -0.16140  -0.24170   0.14892
   3    13     1          0.03810  -0.02713   0.01261   0.02459  -0.01251
   1    14     1         -0.37797   0.27807  -0.13982   0.24662  -0.13515
   2    14     1         -0.36075   0.28670  -0.16139   0.24171  -0.14892
   3    14     1          0.03825  -0.02712   0.01270  -0.02466   0.01259
                          31        32        33        34        35
                           A         A         A         A         A
       Frequencies ---  3172.3257 3174.1431 3219.4336 3221.1218 3801.5313
    Reduced masses ---     1.0891    1.0896    1.0923    1.0927    1.0660
   Force constants ---     6.4575    6.4679    6.6702    6.6797    9.0762
    IR Intensities ---    39.8222    0.0108   12.4339    0.0082   80.1557
 Coord Atom Element:
   1     1     6          0.03342   0.03454  -0.00402  -0.00528   0.00010
   2     1     6         -0.04820  -0.04994   0.01006   0.01058  -0.00080
   3     1     6         -0.00717  -0.00741   0.00106   0.00127  -0.00005
   1     2     6         -0.00279  -0.00233   0.00180   0.00033  -0.00165
   2     2     6         -0.00158  -0.00179  -0.00254   0.00294   0.00053
   3     2     6          0.00033   0.00026  -0.00038   0.00009   0.00026
   1     3     6         -0.00852   0.00913  -0.06158   0.05858   0.00033
   2     3     6          0.00161  -0.00034  -0.00525   0.00484  -0.00026
   3     3     6          0.00132  -0.00135   0.00877  -0.00835  -0.00006
   1     4     6          0.03453  -0.03342  -0.00429   0.00507   0.00012
   2     4     6         -0.04982   0.04832   0.01059  -0.01006  -0.00086
   3     4     6         -0.00741   0.00717   0.00113  -0.00122  -0.00006
   1     5     6         -0.00287   0.00224   0.00181  -0.00023  -0.00177
   2     5     6         -0.00163   0.00174  -0.00239  -0.00307   0.00056
   3     5     6          0.00034  -0.00025  -0.00038  -0.00011   0.00029
   1     6     6         -0.00821  -0.00939  -0.05850  -0.06166   0.00035
   2     6     6          0.00160   0.00039  -0.00500  -0.00510  -0.00029
   3     6     6          0.00128   0.00140   0.00834   0.00880  -0.00006
   1     7     1          0.10998   0.12133   0.66864   0.70249  -0.00046
   2     7     1          0.00599   0.00880   0.05437   0.05674  -0.00074
   3     7     1         -0.01584  -0.01737  -0.09546  -0.10032   0.00003
   1     8     1         -0.38339  -0.39541   0.05815   0.06652  -0.00010
   2     8     1          0.56013   0.57783  -0.08970  -0.10080   0.00337
   3     8     1          0.08255   0.08515  -0.01275  -0.01450   0.00017
   1     9     8          0.00033   0.00037  -0.00031  -0.00011  -0.02719
   2     9     8          0.00014   0.00032   0.00025  -0.00038   0.03229
   3     9     8         -0.00004  -0.00004   0.00006   0.00000   0.00540
   1    10     1          0.11398  -0.11773   0.70377  -0.66730  -0.00050
   2    10     1          0.00628  -0.00861   0.05720  -0.05387  -0.00073
   3    10     1         -0.01639   0.01683  -0.10031   0.09513   0.00004
   1    11     1         -0.39619   0.38256   0.06153  -0.06348  -0.00015
   2    11     1          0.57885  -0.55905  -0.09482   0.09612   0.00359
   3    11     1          0.08531  -0.08238  -0.01348   0.01383   0.00020
   1    12     8          0.00035  -0.00036  -0.00032   0.00009  -0.02897
   2    12     8          0.00015  -0.00031   0.00023   0.00040   0.03445
   3    12     8         -0.00004   0.00004   0.00006   0.00001   0.00590
   1    13     1          0.00122   0.00067   0.00180  -0.00062   0.44650
   2    13     1          0.00563   0.00631   0.00009  -0.00216  -0.50879
   3    13     1          0.00005   0.00016  -0.00025  -0.00001  -0.08766
   1    14     1          0.00125  -0.00063   0.00176   0.00072   0.47596
   2    14     1          0.00583  -0.00612  -0.00002   0.00216  -0.54265
   3    14     1          0.00008  -0.00019  -0.00026   0.00000  -0.09578
                          36
                           A
       Frequencies ---  3802.5514
    Reduced masses ---     1.0662
   Force constants ---     9.0828
    IR Intensities ---     0.0839
 Coord Atom Element:
   1     1     6         -0.00036
   2     1     6          0.00094
   3     1     6          0.00010
   1     2     6          0.00190
   2     2     6         -0.00044
   3     2     6         -0.00030
   1     3     6         -0.00033
   2     3     6          0.00044
   3     3     6          0.00007
   1     4     6          0.00035
   2     4     6         -0.00089
   3     4     6         -0.00009
   1     5     6         -0.00179
   2     5     6          0.00040
   3     5     6          0.00028
   1     6     6          0.00031
   2     6     6         -0.00043
   3     6     6         -0.00007
   1     7     1          0.00053
   2     7     1         -0.00017
   3     7     1         -0.00009
   1     8     1          0.00076
   2     8     1         -0.00356
   3     8     1         -0.00028
   1     9     8          0.02889
   2     9     8         -0.03463
   3     9     8         -0.00575
   1    10     1         -0.00050
   2    10     1          0.00022
   3    10     1          0.00009
   1    11     1         -0.00075
   2    11     1          0.00333
   3    11     1          0.00027
   1    12     8         -0.02706
   2    12     8          0.03247
   3    12     8          0.00552
   1    13     1         -0.47623
   2    13     1          0.54281
   3    13     1          0.09350
   1    14     1          0.44611
   2    14     1         -0.50875
   3    14     1         -0.08977
 Harmonic frequencies (cm**-1), IR intensities (KM/Mole), Raman scattering
 activities (A**4/AMU), depolarization ratios for plane and unpolarized
 incident light, reduced masses (AMU), force constants (mDyne/A),
 and normal coordinates:
                      1                      2                      3
                      A                      A                      A
 Frequencies --    155.3201               219.8038               224.4409
 Red. masses --      4.8968                 1.0898                 1.1632
 Frc consts  --      0.0696                 0.0310                 0.0345
 IR Inten    --      3.8801                 0.0064               244.9508
  Atom  AN      X      Y      Z        X      Y      Z        X      Y      Z
     1   6     0.03  -0.01   0.18     0.00   0.00   0.02     0.00   0.00   0.00
     2   6     0.01   0.00   0.04     0.00   0.00   0.00     0.00   0.00  -0.01
     3   6     0.03  -0.01   0.17     0.00   0.00  -0.01     0.00   0.00  -0.02
     4   6     0.03  -0.01   0.18     0.00   0.00  -0.02     0.00   0.00   0.00
     5   6     0.01   0.00   0.04     0.00   0.00   0.00     0.00   0.00  -0.01
     6   6     0.03  -0.01   0.17     0.00   0.00   0.01     0.00   0.00  -0.02
     7   1     0.03  -0.01   0.17     0.01   0.00   0.04    -0.01   0.00  -0.04
     8   1     0.03  -0.01   0.20     0.01   0.00   0.07     0.00   0.00   0.02
     9   8    -0.04   0.01  -0.28     0.01   0.00   0.05     0.01   0.00   0.07
    10   1     0.03  -0.01   0.17    -0.01   0.00  -0.04    -0.01   0.00  -0.04
    11   1     0.03  -0.01   0.20    -0.01   0.00  -0.07     0.00   0.00   0.02
    12   8    -0.04   0.01  -0.28    -0.01   0.00  -0.05     0.01   0.00   0.07
    13   1    -0.08   0.02  -0.53    -0.10   0.03  -0.69    -0.10   0.03  -0.70
    14   1    -0.08   0.03  -0.53     0.10  -0.03   0.70    -0.10   0.03  -0.69
                      4                      5                      6
                      A                      A                      A
 Frequencies --    339.0651               369.7763               425.9468
 Red. masses --      4.9759                 6.9823                 3.2464
 Frc consts  --      0.3370                 0.5625                 0.3470
 IR Inten    --     19.1501                 0.0000                 1.3700
  Atom  AN      X      Y      Z        X      Y      Z        X      Y      Z
     1   6     0.12  -0.09  -0.02     0.04  -0.01   0.24    -0.03   0.01  -0.22
     2   6     0.10  -0.05  -0.02     0.04  -0.01   0.29     0.00   0.00   0.01
     3   6     0.14  -0.04  -0.02     0.04  -0.01   0.25     0.03  -0.01   0.22
     4   6     0.12  -0.09  -0.02    -0.04   0.01  -0.24    -0.03   0.01  -0.22
     5   6     0.10  -0.05  -0.02    -0.04   0.01  -0.29     0.00   0.00   0.01
     6   6     0.14  -0.04  -0.02    -0.04   0.01  -0.25     0.03  -0.01   0.22
     7   1     0.14  -0.07  -0.02    -0.04   0.02  -0.29     0.06  -0.02   0.42
     8   1     0.13  -0.08  -0.02     0.05  -0.01   0.33    -0.07   0.02  -0.45
     9   8    -0.26   0.15   0.04    -0.03   0.01  -0.21     0.00   0.00   0.01
    10   1     0.14  -0.07  -0.02     0.04  -0.02   0.29     0.06  -0.02   0.42
    11   1     0.13  -0.08  -0.02    -0.05   0.02  -0.33    -0.07   0.02  -0.45
    12   8    -0.26   0.15   0.04     0.03  -0.01   0.21     0.00   0.00   0.01
    13   1    -0.53  -0.11   0.08    -0.03   0.01  -0.22    -0.01   0.01  -0.11
    14   1    -0.53  -0.11   0.08     0.03  -0.01   0.22    -0.02   0.00  -0.11
                      7                      8                      9
                      A                      A                      A
 Frequencies --    444.6408               470.8205               523.3410
 Red. masses --      3.6638                 8.2555                 2.2407
 Frc consts  --      0.4268                 1.0782                 0.3616
 IR Inten    --      0.0000                 0.0000                10.0060
  Atom  AN      X      Y      Z        X      Y      Z        X      Y      Z
     1   6     0.17  -0.01  -0.03     0.11  -0.02  -0.02     0.00   0.00  -0.03
     2   6     0.16  -0.05  -0.03     0.11   0.28   0.00     0.03  -0.01   0.22
     3   6     0.09  -0.11  -0.02    -0.12   0.11   0.02    -0.01   0.00  -0.05
     4   6    -0.17   0.01   0.03    -0.11   0.02   0.02    -0.01   0.00  -0.03
     5   6    -0.16   0.05   0.03    -0.11  -0.28   0.00     0.03  -0.01   0.22
     6   6    -0.09   0.11   0.02     0.12  -0.11  -0.02    -0.01   0.00  -0.05
     7   1    -0.11   0.34   0.03     0.10   0.10  -0.01    -0.07   0.02  -0.47
     8   1     0.31   0.09  -0.04    -0.10  -0.16   0.01    -0.07   0.02  -0.46
     9   8    -0.13   0.11   0.02     0.19   0.33  -0.01    -0.01   0.00  -0.04
    10   1     0.11  -0.34  -0.03    -0.10  -0.10   0.01    -0.07   0.02  -0.47
    11   1    -0.31  -0.09   0.04     0.10   0.16  -0.01    -0.07   0.02  -0.46
    12   8     0.13  -0.11  -0.02    -0.19  -0.33   0.01    -0.01   0.00  -0.04
    13   1    -0.38  -0.12   0.05     0.21   0.35  -0.01    -0.01   0.00  -0.06
    14   1     0.38   0.12  -0.05    -0.21  -0.35   0.01    -0.01   0.00  -0.06
                     10                     11                     12
                      A                      A                      A
 Frequencies --    659.5394               702.1646               766.6677
 Red. masses --      6.8628                 4.4238                 5.7709
 Frc consts  --      1.7589                 1.2851                 1.9985
 IR Inten    --      0.0000                 0.0001                50.3729
  Atom  AN      X      Y      Z        X      Y      Z        X      Y      Z
     1   6    -0.02   0.35   0.02    -0.02   0.01  -0.17     0.06   0.21   0.00
     2   6    -0.07   0.04   0.01     0.05  -0.01   0.31    -0.03  -0.06   0.00
     3   6    -0.29  -0.20   0.03    -0.02   0.01  -0.16     0.14   0.16  -0.01
     4   6     0.02  -0.35  -0.02     0.02  -0.01   0.17     0.06   0.21   0.00
     5   6     0.07  -0.04  -0.01    -0.05   0.01  -0.31    -0.03  -0.06   0.00
     6   6     0.29   0.20  -0.03     0.02  -0.01   0.16     0.14   0.16  -0.01
     7   1     0.30   0.14  -0.04     0.06  -0.02   0.43     0.12   0.36   0.00
     8   1    -0.08   0.30   0.03    -0.06   0.02  -0.39     0.19   0.30  -0.01
     9   8    -0.09   0.04   0.02     0.00   0.00  -0.03    -0.14  -0.26   0.01
    10   1    -0.30  -0.14   0.04    -0.06   0.02  -0.43     0.12   0.36   0.00
    11   1     0.08  -0.30  -0.03     0.06  -0.02   0.39     0.19   0.30  -0.02
    12   8     0.09  -0.04  -0.02     0.00   0.00   0.03    -0.14  -0.26   0.01
    13   1    -0.17  -0.03   0.02    -0.01   0.00  -0.06    -0.06  -0.21   0.00
    14   1     0.17   0.03  -0.02     0.01   0.00   0.06    -0.06  -0.21   0.00
                     13                     14                     15
                      A                      A                      A
 Frequencies --    801.0280               825.6920               868.9744
 Red. masses --      1.2555                 1.7354                 6.5406
 Frc consts  --      0.4746                 0.6971                 2.9099
 IR Inten    --      0.0000                57.8965                 0.0000
  Atom  AN      X      Y      Z        X      Y      Z        X      Y      Z
     1   6     0.01   0.00   0.08    -0.01   0.00  -0.10    -0.25   0.20   0.05
     2   6     0.00   0.00   0.00     0.02  -0.01   0.13    -0.01  -0.03   0.00
     3   6    -0.01   0.00  -0.06    -0.01   0.00  -0.07     0.30  -0.08  -0.05
     4   6    -0.01   0.00  -0.08    -0.01   0.00  -0.10     0.25  -0.20  -0.05
     5   6     0.00   0.00   0.00     0.02  -0.01   0.13     0.01   0.03   0.00
     6   6     0.01   0.00   0.06    -0.01   0.00  -0.07    -0.30   0.08   0.05
     7   1    -0.06   0.02  -0.42     0.06  -0.02   0.38    -0.30  -0.15   0.04
     8   1    -0.08   0.03  -0.54     0.08  -0.03   0.56    -0.07   0.34   0.03
     9   8     0.00   0.00   0.00     0.00   0.00  -0.02     0.07   0.16   0.00
    10   1     0.06  -0.02   0.42     0.06  -0.02   0.38     0.30   0.15  -0.04
    11   1     0.08  -0.03   0.54     0.08  -0.03   0.56     0.07  -0.34  -0.03
    12   8     0.00   0.00   0.00     0.00   0.00  -0.02    -0.07  -0.16   0.00
    13   1    -0.01   0.00  -0.04     0.00   0.00  -0.03     0.04   0.14   0.00
    14   1     0.01   0.00   0.04     0.00   0.00  -0.03    -0.04  -0.14   0.00
                     16                     17                     18
                      A                      A                      A
 Frequencies --    914.3487               922.2242              1027.8382
 Red. masses --      1.2764                 1.3030                 2.5450
 Frc consts  --      0.6287                 0.6529                 1.5841
 IR Inten    --      0.0000                 0.8985                 0.0511
  Atom  AN      X      Y      Z        X      Y      Z        X      Y      Z
     1   6    -0.01   0.00  -0.07     0.01   0.00   0.07     0.16  -0.10  -0.03
     2   6     0.00   0.00   0.03     0.00   0.00   0.02     0.00   0.01   0.00
     3   6    -0.01   0.00  -0.08    -0.01   0.00  -0.09    -0.17   0.06   0.03
     4   6     0.01   0.00   0.06     0.01   0.00   0.07     0.16  -0.10  -0.03
     5   6     0.00   0.00  -0.03     0.00   0.00   0.02     0.00   0.01   0.00
     6   6     0.01   0.00   0.08    -0.01   0.00  -0.09    -0.17   0.06   0.03
     7   1    -0.08   0.03  -0.55     0.08  -0.03   0.55    -0.20   0.45   0.05
     8   1     0.06  -0.02   0.43    -0.06   0.02  -0.41     0.42   0.08  -0.06
     9   8     0.00   0.00  -0.01     0.00   0.00   0.00    -0.01  -0.01   0.00
    10   1     0.08  -0.03   0.54     0.08  -0.03   0.55    -0.20   0.45   0.05
    11   1    -0.06   0.02  -0.42    -0.06   0.02  -0.41     0.42   0.08  -0.06
    12   8     0.00   0.00   0.01     0.00   0.00   0.00    -0.01  -0.01   0.00
    13   1     0.00   0.00  -0.01     0.00   0.00  -0.02    -0.01  -0.01   0.00
    14   1     0.00   0.00   0.01     0.00   0.00  -0.02    -0.01  -0.01   0.00
                     19                     20                     21
                      A                      A                      A
 Frequencies --   1121.7939              1191.6466              1192.6752
 Red. masses --      1.3669                 1.4209                 1.1088
 Frc consts  --      1.0135                 1.1888                 0.9293
 IR Inten    --     45.9885               282.8575                 0.0004
  Atom  AN      X      Y      Z        X      Y      Z        X      Y      Z
     1   6     0.00  -0.08   0.00    -0.06   0.01   0.01    -0.05  -0.02   0.01
     2   6    -0.06   0.02   0.01     0.06  -0.06  -0.01     0.00   0.01   0.00
     3   6     0.07   0.03  -0.01    -0.02   0.05   0.01     0.01  -0.04   0.00
     4   6     0.00  -0.08   0.00    -0.06   0.01   0.01     0.05   0.02  -0.01
     5   6    -0.06   0.02   0.01     0.06  -0.06  -0.01     0.00  -0.01   0.00
     6   6     0.07   0.03  -0.01    -0.02   0.05   0.01    -0.01   0.04   0.00
     7   1     0.05   0.47   0.01    -0.04   0.29   0.02    -0.04   0.52   0.03
     8   1    -0.32  -0.31   0.03    -0.20  -0.08   0.03    -0.39  -0.26   0.05
     9   8    -0.01   0.00   0.00     0.06   0.02  -0.01     0.00  -0.01   0.00
    10   1     0.05   0.46   0.01    -0.04   0.30   0.02     0.04  -0.52  -0.03
    11   1    -0.32  -0.31   0.03    -0.20  -0.08   0.03     0.39   0.26  -0.04
    12   8    -0.01   0.00   0.00     0.06   0.02  -0.01     0.00   0.01   0.00
    13   1     0.18   0.17  -0.02    -0.42  -0.41   0.04    -0.02  -0.03   0.00
    14   1     0.18   0.17  -0.02    -0.42  -0.41   0.04     0.02   0.03   0.00
                     22                     23                     24
                      A                      A                      A
 Frequencies --   1203.8485              1287.9139              1314.3707
 Red. masses --      1.2653                 2.5293                 6.2099
 Frc consts  --      1.0804                 2.4719                 6.3207
 IR Inten    --      0.0001               169.3409                 0.0001
  Atom  AN      X      Y      Z        X      Y      Z        X      Y      Z
     1   6     0.02   0.00   0.00     0.04  -0.03  -0.01     0.03   0.18   0.00
     2   6    -0.04   0.06   0.01     0.12   0.17  -0.01     0.21   0.29  -0.02
     3   6     0.03   0.00   0.00    -0.06   0.06   0.01     0.11   0.12  -0.01
     4   6    -0.02   0.00   0.00     0.04  -0.03  -0.01    -0.03  -0.18   0.00
     5   6     0.04  -0.06  -0.01     0.12   0.17  -0.01    -0.21  -0.29   0.02
     6   6    -0.03   0.00   0.00    -0.06   0.06   0.01    -0.11  -0.12   0.01
     7   1    -0.05   0.27   0.02    -0.03  -0.35  -0.01    -0.12  -0.25   0.01
     8   1     0.21   0.13  -0.02    -0.41  -0.34   0.04    -0.35  -0.05   0.05
     9   8    -0.06  -0.03   0.01    -0.04  -0.10   0.00    -0.08  -0.17   0.00
    10   1     0.05  -0.27  -0.02    -0.03  -0.35  -0.01     0.12   0.25  -0.01
    11   1    -0.21  -0.13   0.02    -0.41  -0.34   0.04     0.35   0.05  -0.05
    12   8     0.06   0.03  -0.01    -0.04  -0.10   0.00     0.08   0.17   0.00
    13   1     0.43   0.41  -0.04    -0.08  -0.14   0.00    -0.13  -0.23   0.01
    14   1    -0.43  -0.41   0.04    -0.08  -0.14   0.00     0.13   0.23  -0.01
                     25                     26                     27
                      A                      A                      A
 Frequencies --   1373.3275              1379.7035              1504.3040
 Red. masses --      1.3032                 4.1359                 2.8352
 Frc consts  --      1.4482                 4.6386                 3.7801
 IR Inten    --      0.0000                52.5944               113.5580
  Atom  AN      X      Y      Z        X      Y      Z        X      Y      Z
     1   6     0.05   0.00  -0.01     0.19   0.14  -0.02    -0.01   0.13   0.01
     2   6     0.04  -0.05  -0.01    -0.18   0.10   0.03     0.17  -0.04  -0.03
     3   6     0.01  -0.07   0.00     0.00  -0.21  -0.01    -0.08  -0.15   0.00
     4   6    -0.05   0.00   0.01     0.19   0.14  -0.02    -0.01   0.13   0.01
     5   6    -0.04   0.05   0.01    -0.18   0.10   0.03     0.17  -0.04  -0.03
     6   6    -0.01   0.07   0.00     0.00  -0.21  -0.01    -0.08  -0.15   0.00
     7   1     0.03  -0.38  -0.02    -0.03   0.11   0.01    -0.14   0.43   0.04
     8   1    -0.35  -0.28   0.04    -0.22  -0.14   0.03    -0.22   0.00   0.03
     9   8    -0.03   0.01   0.01     0.04   0.01  -0.01    -0.06   0.00   0.01
    10   1    -0.03   0.38   0.02    -0.03   0.11   0.01    -0.14   0.43   0.04
    11   1     0.35   0.28  -0.04    -0.22  -0.14   0.03    -0.22   0.00   0.03
    12   8     0.03  -0.01  -0.01     0.04   0.01  -0.01    -0.06   0.00   0.01
    13   1     0.26   0.27  -0.03    -0.38  -0.36   0.04     0.28   0.29  -0.03
    14   1    -0.26  -0.27   0.03    -0.38  -0.36   0.04     0.28   0.29  -0.03
                     28                     29                     30
                      A                      A                      A
 Frequencies --   1569.9042              1661.1952              1688.3556
 Red. masses --      2.7797                 6.1081                 6.1493
 Frc consts  --      4.0364                 9.9311                10.3277
 IR Inten    --    160.9853                 0.0000                 0.0000
  Atom  AN      X      Y      Z        X      Y      Z        X      Y      Z
     1   6    -0.13  -0.07   0.02     0.27   0.07  -0.04     0.11   0.21  -0.01
     2   6     0.04   0.19   0.00    -0.33   0.09   0.05     0.02  -0.25  -0.01
     3   6     0.07  -0.11  -0.01     0.15  -0.05  -0.02     0.00   0.33   0.02
     4   6    -0.13  -0.07   0.02    -0.27  -0.07   0.04    -0.11  -0.21   0.01
     5   6     0.04   0.19   0.00     0.33  -0.09  -0.05    -0.02   0.25   0.01
     6   6     0.07  -0.11  -0.01    -0.15   0.05   0.02     0.00  -0.33  -0.02
     7   1     0.05   0.36   0.01    -0.16  -0.07   0.02    -0.05   0.38   0.03
     8   1     0.39   0.30  -0.04    -0.21  -0.27   0.02    -0.27  -0.06   0.04
     9   8     0.00  -0.04   0.00     0.05   0.01  -0.01    -0.01   0.03   0.00
    10   1     0.05   0.36   0.01     0.16   0.07  -0.02     0.05  -0.38  -0.02
    11   1     0.39   0.30  -0.04     0.21   0.27  -0.02     0.27   0.06  -0.04
    12   8     0.00  -0.04   0.00    -0.05  -0.01   0.01     0.01  -0.03   0.00
    13   1    -0.14  -0.16   0.01    -0.25  -0.24   0.02     0.14   0.15  -0.01
    14   1    -0.14  -0.16   0.01     0.25   0.24  -0.02    -0.14  -0.15   0.01
                     31                     32                     33
                      A                      A                      A
 Frequencies --   3172.3257              3174.1431              3219.4336
[...]
 
 -------------------------------------------------------------------
 Center     Atomic                   Forces (Hartrees/Bohr)
 Number     Number              X              Y              Z
 -------------------------------------------------------------------
      1        6           0.000228618   -0.000249797   -0.000052499
      2        6          -0.000170293   -0.000629471   -0.000006853
      3        6          -0.000406628    0.000102586    0.000036049
      4        6          -0.000230337    0.000241261    0.000039906
      5        6           0.000166737    0.000627850    0.000003500
      6        6           0.000414058   -0.000096517   -0.000042933
      7        1          -0.000246983   -0.000005633    0.000018920
      8        1          -0.000151162    0.000192815    0.000049645
      9        8           0.002527075   -0.001981541   -0.000464967
     10        1           0.000238682    0.000005555   -0.000033245
     11        1           0.000150837   -0.000189142   -0.000042833
     12        8          -0.002519203    0.001978566    0.000483586
     13        1          -0.002311320    0.002297013    0.000445637
     14        1           0.002309920   -0.002293544   -0.000433912
 -------------------------------------------------------------------
 Cartesian Forces:  Max     0.002527075 RMS     0.001027073
 Z-matrix is all fixed cartesians, so copy forces.
 Leave Link  716 at Wed Mar 18 11:16:56 2015, MaxMem=   268435456 cpu:         1.3
 (Enter /opt/g09.d01/l103.exe)

 GradGradGradGradGradGradGradGradGradGradGradGradGradGradGradGradGradGrad
 Berny optimization.
 Search for a local minimum.
 Step number   1 out of a maximum of    2
 All quantities printed in internal units (Hartrees-Bohrs-Radians)
 Second derivative matrix not updated -- analytic derivatives used.
 ITU=  0
     Eigenvalues ---    0.00180   0.00281   0.01084   0.01600   0.01936
     Eigenvalues ---    0.02210   0.02500   0.02890   0.04851   0.05408
     Eigenvalues ---    0.05943   0.06599   0.06855   0.08642   0.10032
     Eigenvalues ---    0.11130   0.12857   0.16520   0.18569   0.20027
     Eigenvalues ---    0.21216   0.25299   0.29931   0.41394   0.50247
     Eigenvalues ---    0.66269   0.68974   0.82585   0.88082   0.94387
     Eigenvalues ---    1.01501   1.09718   1.11653   1.16424   1.27837
     Eigenvalues ---    1.31586
 Angle between quadratic step and forces=  62.07 degrees.
 Linear search not attempted -- first point.
 TrRot= -0.000568 -0.000571 -0.000345  0.014201  0.000003 -0.014342
 Variable       Old X    -DE/DX   Delta X   Delta X   Delta X     New X
                                 (Linear)    (Quad)   (Total)
    X1       -5.58201   0.00023   0.00000   0.00089   0.00115  -5.58086
    Y1        5.82835  -0.00025   0.00000   0.00004   0.00026   5.82861
    Z1        0.96497  -0.00005   0.00000  -0.00092  -0.00125   0.96372
    X2       -2.97343  -0.00017   0.00000   0.00077   0.00106  -2.97237
    Y2        6.03745  -0.00063   0.00000  -0.00103  -0.00118   6.03627
    Z2        0.59247  -0.00001   0.00000  -0.00044  -0.00078   0.59169
    X3       -1.52731  -0.00041   0.00000  -0.00008  -0.00010  -1.52741
    Y3        3.85122   0.00010   0.00000  -0.00073  -0.00108   3.85014
    Z3        0.27800   0.00004   0.00000  -0.00099  -0.00133   0.27667
    X4       -2.68194  -0.00023   0.00000  -0.00116  -0.00152  -2.68346
    Y4        1.48429   0.00024   0.00000   0.00004  -0.00016   1.48413
    Z4        0.33509   0.00004   0.00000  -0.00092  -0.00126   0.33383
    X5       -5.29065   0.00017   0.00000  -0.00089  -0.00127  -5.29192
    Y5        1.27522   0.00063   0.00000   0.00106   0.00124   1.27646
    Z5        0.70668   0.00000   0.00000  -0.00034  -0.00067   0.70601
    X6       -6.73661   0.00041   0.00000  -0.00020  -0.00028  -6.73689
    Y6        3.46139  -0.00010   0.00000   0.00082   0.00120   3.46259
    Z6        1.02221  -0.00004   0.00000  -0.00090  -0.00122   1.02099
    X7       -8.75892  -0.00025   0.00000  -0.00106  -0.00115  -8.76007
    Y7        3.28474  -0.00001   0.00000   0.00188   0.00255   3.28729
    Z7        1.31041   0.00002   0.00000  -0.00144  -0.00176   1.30866
    X8       -6.72366  -0.00015   0.00000   0.00107   0.00157  -6.72210
    Y8        7.52117   0.00019   0.00000   0.00097   0.00135   7.52252
    Z8        1.21190   0.00005   0.00000  -0.00042  -0.00075   1.21115
    X9       -1.73630   0.00253   0.00000   0.00113   0.00174  -1.73456
    Y9        8.31589  -0.00198   0.00000   0.00032  -0.00001   8.31588
    Z9        0.51828  -0.00046   0.00000   0.00048   0.00014   0.51842
   X10        0.49509   0.00024   0.00000   0.00070   0.00070   0.49579
   Y10        4.02786   0.00001   0.00000  -0.00178  -0.00242   4.02544
   Z10       -0.00968  -0.00003   0.00000  -0.00085  -0.00120  -0.01087
   X11       -1.54030   0.00015   0.00000  -0.00135  -0.00195  -1.54224
   Y11       -0.20855  -0.00019   0.00000  -0.00087  -0.00122  -0.20977
   Z11        0.08810  -0.00004   0.00000  -0.00152  -0.00186   0.08624
   X12       -6.52808  -0.00252   0.00000  -0.00097  -0.00168  -6.52976
   Y12       -1.00312   0.00198   0.00000  -0.00037  -0.00002  -1.00314
   Z12        0.77891   0.00048   0.00000   0.00053   0.00021   0.77911
   X13       -2.95177  -0.00231   0.00000  -0.00640  -0.00560  -2.95737
   Y13        9.65695   0.00230   0.00000   0.00118   0.00103   9.65798
   Z13        0.75489   0.00045   0.00000   0.00636   0.00602   0.76091
   X14       -5.31344   0.00231   0.00000   0.00823   0.00733  -5.30611
   Y14       -2.34394  -0.00229   0.00000  -0.00174  -0.00156  -2.34550
   Z14        0.53663  -0.00043   0.00000   0.00603   0.00570   0.54232
         Item               Value     Threshold  Converged?
 Maximum Force            0.002527     0.000450     NO 
 RMS     Force            0.001027     0.000300     NO 
 Maximum Displacement     0.007327     0.001800     NO 
 RMS     Displacement     0.002262     0.001200     NO 
 Predicted change in Energy=-2.322028D-05
 GradGradGradGradGradGradGradGradGradGradGradGradGradGradGradGradGradGrad

 Leave Link  103 at Wed Mar 18 11:16:56 2015, MaxMem=   268435456 cpu:         1.0
 (Enter /opt/g09.d01/l9999.exe)
 1\1\GINC-SOLE1\Freq\RB3LYP\6-31G(d)\C6H6O2\JAVIER\18-Mar-2015\0\\#p B3
 LYP/6-31G(d) Freq(hpmodes,savenm) nosymm\\Título\\0,1\C,-2.95387,3.08
 423,0.51064\C,-1.57347,3.19488,0.31352\C,-0.80822,2.03798,0.14711\C,-1
 .41922,0.78545,0.17732\C,-2.79969,0.67482,0.37396\C,-3.56486,1.83169,0
 .54093\H,-4.63502,1.73821,0.69344\H,-3.55801,3.98003,0.64131\O,-0.9188
 1,4.40058,0.27426\H,0.26199,2.13145,-0.00512\H,-0.81509,-0.11036,0.046
 62\O,-3.45451,-0.53083,0.41218\H,-1.56201,5.11024,0.39947\H,-2.81175,-
 1.24036,0.28397\\Version=EM64L-G09RevD.01\HF=-382.6781177\RMSD=5.581e-
 09\RMSF=1.027e-03\ZeroPoint=0.1083081\Thermal=0.1153497\Dipole=-0.0002
 659,0.000083,-0.001822\DipoleDeriv=0.0545718,-0.3210518,-0.0475106,0.1
 017951,-0.028006,-0.0083034,-0.0274332,0.053488,-0.1603724,0.123193,0.
 5929556,0.0282761,0.5756658,1.1238586,-0.0376028,0.0274867,-0.0400918,
 0.121553,0.0949451,0.1370397,-0.0277764,-0.2853737,-0.1091103,0.043309
 6,-0.0475607,-0.0183474,-0.1330137,0.0545301,-0.3210545,-0.0476548,0.1
 017808,-0.0279883,-0.0084319,-0.0275942,0.0534157,-0.1603327,0.1233973
 ,0.5930735,0.0289897,0.575764,1.1237578,-0.0367164,0.0281687,-0.039052
 6,0.1214355,0.0948626,0.1369762,-0.0278396,-0.2853714,-0.1090835,0.043
 1757,-0.0480047,-0.0187957,-0.1329659,-0.0645883,-0.0215946,0.0268023,
 -0.0178254,0.0690994,-0.0000258,0.0269416,0.0004952,0.1212563,0.029288
 9,0.063431,0.0162193,0.0758921,-0.1084097,-0.0218624,0.0168002,-0.0199
 575,0.1163906,-0.4006396,-0.5795372,-0.0281679,-0.5136678,-1.2852903,0
 .033984,-0.0254758,0.043078,-0.4055394,-0.0645913,-0.0215833,0.0267577
 ,-0.0178301,0.0690964,-0.0000383,0.0269973,0.0005639,0.1212566,0.02927
 78,0.0633998,0.0161906,0.0758921,-0.1084028,-0.0218909,0.0167516,-0.02
 01814,0.1163886,-0.400878,-0.579483,-0.029154,-0.5136836,-1.2852663,0.
 0336623,-0.0260794,0.0431777,-0.4053155,0.1632541,0.1287672,0.032152,0
 .063497,0.3378584,-0.0095583,0.0293782,-0.0186083,0.3397061,0.1633764,
 0.1286614,0.0327156,0.0634648,0.3378866,-0.0097016,0.0296239,-0.019184
 ,0.3395527\Polar=75.6809043,3.9523512,90.687537,-7.27052,2.5323388,25.
 9184627\PG=C01 [X(C6H6O2)]\NImag=0\\0.67500853,-0.01332760,0.73129979,
 -0.08276850,0.03098303,0.12834730,-0.31315211,0.03687643,0.03889096,0.
 68683151,-0.04198131,-0.13135597,0.00283282,-0.00696561,0.71187938,0.0
 3503861,-0.00879412,-0.06559745,-0.07992166,0.02761841,0.15631557,-0.0
 3001834,0.01895514,0.00630960,-0.19855493,0.13156696,0.02596392,0.7327
 5089,0.06593983,0.03793956,-0.00821104,0.05740091,-0.24615488,-0.01698
 936,0.02435220,0.69381737,0.00849589,-0.00136862,0.00565252,0.02244528
 ,-0.02781853,-0.06828017,-0.08887346,0.02359439,0.13239100,-0.04560407
 ,-0.02720021,0.00504453,0.06815728,-0.01757700,-0.01060290,-0.16804651
 ,-0.06118380,0.01486856,0.67504939,-0.02720060,-0.02079623,0.00312621,
 0.03329820,-0.05729940,-0.00760386,-0.12138049,-0.31009258,0.00538667,
 -0.01330920,0.73129504,0.00505129,0.00312584,-0.00291620,-0.00823556,-
 0.00017812,0.00237604,0.01192424,-0.00346891,-0.04956735,-0.08261453,0
 .03106456,0.12830987,0.06816108,0.03329800,-0.00822418,-0.06624081,0.0
 3174919,0.01078371,-0.01742351,-0.08415698,-0.00134737,-0.31317786,0.0
 3687889,0.03879619,0.68683268,-0.01758031,-0.05729877,-0.00019358,0.03
 174997,-0.01909562,-0.00541000,-0.03401647,0.03134717,0.00639129,-0.04
 197839,-0.13135177,0.00281988,-0.00691121,0.71182756,-0.01058744,-0.00
 760004,0.00237151,0.01077130,-0.00540954,-0.00456473,0.00105804,0.0137
 8830,0.00113420,0.03495369,-0.00881390,-0.06557211,-0.07990474,0.02805
 557,0.15635168,-0.16804154,-0.12137216,0.01194329,-0.01741997,-0.03401
 454,0.00106589,-0.00322935,0.00657957,0.00062660,-0.03001938,0.0189558
 7,0.00631760,-0.19853229,0.13155085,0.02604788,0.73272448,-0.06117026,
 -0.31008400,-0.00342470,-0.08415597,0.03134597,0.01379765,0.00657990,-
 0.06272468,-0.00385460,0.06593951,0.03793953,-0.00821668,0.05737978,-0
 .24614562,-0.01712284,0.02437346,0.69379215,0.01487048,0.00540710,-0.0
 4956891,-0.00133517,0.00640603,0.00113201,0.00062832,-0.00385975,-0.00
 133005,0.00848309,-0.00135967,0.00565353,0.02252646,-0.02791752,-0.068
 31646,-0.08903029,0.02374031,0.13245099,-0.00856150,0.00067949,0.00144
 212,0.00209669,-0.00203463,0.00063912,0.00072133,0.00045834,-0.0001546
 6,-0.00027747,0.00338519,0.00090412,-0.01470907,-0.00525706,0.00259137
 ,-0.33624947,-0.02082286,0.04354755,0.35639012,-0.02880727,0.00234217,
 0.00428281,-0.00079360,-0.00470230,-0.00044162,-0.00017514,-0.00126480
 ,-0.00001138,0.00209609,-0.00471932,-0.00075798,0.02667225,0.00747701,
 -0.00376849,-0.02262636,-0.06128685,0.00194816,0.02449506,0.05818055,0
 .00004448,-0.00003702,0.00106607,0.00069644,-0.00025604,0.00698101,-0.
 00018804,-0.00010937,-0.00046379,0.00084662,-0.00094167,0.00460808,0.0
 0410335,0.00090721,0.00414191,0.04346554,0.00167262,-0.03882060,-0.047
 63574,-0.00194724,0.03049195,-0.14625999,0.12542304,0.02287576,-0.0116
 8368,0.02855409,0.00352685,-0.00586034,-0.00198983,0.00142879,-0.00059
 371,-0.00134144,0.00000040,-0.00042527,-0.00297694,0.00096414,0.011683
 43,-0.01235138,-0.00213005,0.00077031,0.00040271,-0.00068629,0.1509161
 0,0.12512405,-0.24187402,-0.02828064,-0.00406592,0.00053062,0.00047193
 ,-0.00069878,0.00149272,-0.00004187,-0.00074178,-0.00009983,0.00011066
 ,-0.00414025,-0.00182728,0.00018420,0.01816289,-0.01976062,-0.00364882
 ,-0.00014290,0.00118485,0.00027239,-0.13590037,0.25809792,0.02285096,-
 0.02830628,-0.03511503,0.00199993,-0.00430502,0.00269502,0.00148953,0.
 00014455,0.00432074,0.00003208,0.00020130,-0.00015534,0.00090541,0.000
 01521,0.00698729,-0.00068629,0.00081101,0.00127508,-0.00071711,0.00018
 407,-0.00395682,-0.02529506,0.03102721,0.02718357,-0.02416404,-0.05025
 556,0.00210346,-0.15266295,-0.05913593,0.01410006,0.02002566,0.0217861
 5,-0.00104649,-0.00967927,-0.00035496,0.00203132,0.00627760,-0.0005998
 0,-0.00113195,-0.00396533,0.00814333,0.00197772,-0.00078558,-0.0017890
 9,0.00009819,0.00264106,0.00016044,-0.00089746,0.42445218,-0.01044002,
 -0.01250742,0.00065559,-0.11502796,-0.25915974,0.00639687,-0.01679677,
 -0.05344905,-0.00032058,0.00348001,0.00215919,-0.00060426,-0.00054942,
 0.00592216,0.00042978,0.00191085,-0.00422930,-0.00080489,-0.00025375,-
 0.00034554,-0.00000286,0.00112178,0.00395529,0.00018124,-0.11354624,0.
 60394115,0.00399826,0.00650267,0.00610446,0.01152709,-0.00162097,-0.03
 843218,-0.00285062,-0.00597544,0.00597433,0.00221065,-0.00003044,0.003
 95793,-0.00114421,0.00043608,-0.00108400,0.00168950,-0.00173911,0.0065
 9926,0.00017135,0.00022475,0.00044616,-0.00086878,0.00033111,-0.003455
 33,-0.06339894,0.04295251,0.03287843,-0.00027938,0.00338616,0.00089947
 ,-0.01470863,-0.00526010,0.00259151,-0.33625273,-0.02081476,0.04347061
 ,-0.00856259,0.00067834,0.00144035,0.00209734,-0.00203558,0.00063681,0
 .00072182,0.00045962,-0.00015403,-0.00008032,-0.00003399,-0.00008305,-
 0.00068542,-0.00006594,0.00012029,0.00115831,-0.00049892,-0.00068303,0
 .35639419,0.00209718,-0.00471976,-0.00075326,0.02667198,0.00747793,-0.
 00376656,-0.02262059,-0.06129036,0.00195169,-0.02880761,0.00234276,0.0
 0427745,-0.00079375,-0.00470194,-0.00044048,-0.00017533,-0.00126519,-0
 .00001175,-0.00003400,0.00016684,0.00004294,0.00156539,0.00021920,-0.0
 0022699,-0.00068792,0.00218155,0.00035544,0.02449022,0.05818258,0.0008
 3859,-0.00093683,0.00461037,0.00410801,0.00088636,0.00414024,0.0433835
 7,0.00169444,-0.03879845,0.00004051,-0.00004483,0.00106624,0.00070292,
 -0.00026312,0.00698013,-0.00018540,-0.00010036,-0.00046389,-0.00008338
 ,0.00004311,-0.00062223,0.00019631,0.00001256,0.00012902,-0.00070015,0
 .00033165,-0.00325370,-0.04755468,-0.00194558,0.03047076,-0.00059499,-
 0.00134240,0.00000065,-0.00042467,-0.00297715,0.00096165,0.01168474,-0
 .01234950,-0.00212947,-0.14626040,0.12541232,0.02285803,-0.01168028,0.
 02855512,0.00353132,-0.00586153,-0.00198867,0.00142666,-0.00068518,0.0
 0156556,0.00019791,0.00006879,0.00010981,-0.00010107,0.00060895,-0.000
 45329,-0.00005275,0.00077053,0.00040261,-0.00068608,0.15091465,-0.0007
 4128,-0.00009953,0.00011093,-0.00414089,-0.00182698,0.00018201,0.01816
 227,-0.01976113,-0.00364853,0.12511557,-0.24186610,-0.02829254,-0.0040
 6611,0.00053056,0.00046929,-0.00069852,0.00149241,-0.00004229,-0.00006
 587,0.00021909,0.00001295,0.00010985,-0.00008406,0.00001106,0.00105244
 ,-0.00152412,-0.00024116,-0.00014302,0.00118490,0.00027196,-0.13589219
 ,0.25809078,0.00002303,0.00019465,-0.00015435,0.00091197,0.00001292,0.
 00698651,-0.00067761,0.00082358,0.00127420,0.02282590,-0.02832484,-0.0
 3511282,0.00200860,-0.00430953,0.00269250,0.00148404,0.00015205,0.0043
 2219,0.00012030,-0.00022545,0.00012886,-0.00010116,0.00001087,-0.00064
 193,0.00001814,-0.00002562,0.00037921,-0.00071593,0.00018350,-0.003957
 11,-0.02527895,0.03103673,0.02718167,-0.00968025,-0.00035703,0.0020238
 9,0.00627919,-0.00060030,-0.00113514,-0.00396599,0.00814594,0.00198042
 ,-0.02417182,-0.05025994,0.00207263,-0.15265994,-0.05918471,0.01416291
 ,0.02002140,0.02178039,-0.00104128,0.00115808,-0.00068735,-0.00069869,
 0.00060842,0.00105194,0.00001653,-0.00206288,-0.00410066,0.00008335,-0
 .00078575,-0.00178934,0.00009814,0.00264160,0.00016120,-0.00089900,0.4
 2413778,0.00347862,0.00216061,-0.00061489,-0.00055163,0.00592291,0.000
 42059,0.00191154,-0.00423053,-0.00080293,-0.01044181,-0.01250339,0.000
 63077,-0.11504784,-0.25912978,0.00622459,-0.01680417,-0.05344556,-0.00
 038025,-0.00049827,0.00218118,0.00033595,-0.00045276,-0.00152409,-0.00
 002254,-0.00410064,-0.00876283,0.00018868,-0.00025330,-0.00034553,-0.0
 0000025,0.00112392,0.00395452,0.00019519,-0.11327420,0.60379177,0.0022
 1069,-0.00004768,0.00395766,-0.00112986,0.00043117,-0.00108637,0.00168
 193,-0.00171958,0.00660092,0.00397330,0.00645673,0.00610901,0.01147664
 ,-0.00194988,-0.03845727,-0.00288466,-0.00601041,0.00597426,-0.0006849
 5,0.00035934,-0.00325331,-0.00005473,-0.00024511,0.00037969,0.00008284
 ,0.00018932,-0.00016879,0.00017030,0.00022272,0.00044638,-0.00086231,0
 .00033569,-0.00345509,-0.06440589,0.04442914,0.03332077,0.00242405,-0.
 00477945,-0.00067642,0.01159587,-0.02165070,-0.00308621,-0.00122364,-0
 .00404744,0.00025809,0.00076164,0.00001527,0.00013112,-0.00011201,0.00
 032633,0.00007690,-0.00060782,-0.00011980,-0.00002198,0.00001688,-0.00
 002404,-0.00001739,-0.00111516,0.00127481,0.00029538,-0.26164913,0.255
 35345,0.04932600,0.00019548,-0.00029493,-0.00014197,-0.00006469,-0.000
 12804,-0.00001432,-0.00019428,-0.00019852,-0.00000742,0.25001655,0.002
 22927,0.00524258,-0.00007341,0.03058243,-0.03749846,-0.00599326,-0.006
 12266,-0.00467054,0.00059555,0.00237953,-0.00024860,-0.00044143,-0.000
 87851,-0.00006326,0.00011093,0.00028186,-0.00095804,-0.00006153,0.0001
 8224,0.00026654,-0.00001022,-0.00187213,0.00006696,0.00025474,0.198968
 64,-0.27916466,-0.04138668,-0.00009089,0.00030055,0.00006130,-0.000292
 11,-0.00037757,0.00002969,0.00035919,0.00098312,0.00000337,-0.22576029
 ,0.31619492,-0.00031539,0.00096968,-0.00039395,-0.00074659,0.00146500,
 -0.00295532,0.00015351,0.00028106,0.00181722,0.00024730,-0.00010001,0.
 00163638,0.00002046,-0.00006837,0.00028888,-0.00000751,0.00001280,-0.0
 0072495,-0.00000689,0.00001971,-0.00008494,0.00016526,-0.00021054,0.00
 046589,0.04674377,-0.04946313,-0.00976759,-0.00013254,0.00008986,-0.00
 066260,-0.00002135,0.00000537,-0.00011175,0.00002110,0.00008839,-0.000
 17824,-0.04613656,0.04692124,0.01062551,0.00076255,0.00001616,0.000135
 37,-0.00011278,0.00032702,0.00007459,-0.00060728,-0.00012064,-0.000022
 79,0.00242477,-0.00477743,-0.00067720,0.01159235,-0.02164181,-0.003170
 23,-0.00122443,-0.00404705,0.00025252,0.00019519,-0.00029482,-0.000143
 34,-0.00006452,-0.00012800,-0.00001313,-0.00019457,-0.00019906,-0.0000
 0787,0.00001715,-0.00002390,-0.00001639,-0.00111752,0.00127458,0.00029
 499,-0.26132554,0.25510904,0.05043413,-0.00004373,0.00003343,0.0000154
 4,0.24969837,0.00237969,-0.00024901,-0.00043989,-0.00087833,-0.0000634
 5,0.00011133,0.00028288,-0.00095826,-0.00005255,0.00222910,0.00524070,
 -0.00006924,0.03056595,-0.03749042,-0.00610735,-0.00612425,-0.00467018
 ,0.00058486,-0.00009098,0.00030060,0.00006037,-0.00029200,-0.00037765,
 0.00003044,0.00035914,0.00098332,0.00000257,0.00018216,0.00026647,-0.0
 0001042,-0.00187404,0.00006723,0.00024624,0.19875487,-0.27905241,-0.04
 245483,0.00003336,-0.00007355,-0.00001104,-0.22552753,0.31607660,0.000
 24904,-0.00009238,0.00163598,0.00001784,-0.00006447,0.00028985,-0.0000
 0292,0.00000712,-0.00072530,-0.00030881,0.00098375,-0.00039326,-0.0007
 0324,0.00148674,-0.00295354,0.00015381,0.00028227,0.00181756,-0.000133
 19,0.00009021,-0.00066235,-0.00002144,0.00000605,-0.00011185,0.0000195
 0,0.00008437,-0.00017818,-0.00000608,0.00002102,-0.00008516,0.00015577
 ,-0.00021147,0.00046792,0.04772103,-0.05069244,-0.01018961,0.00001478,
 -0.00001029,0.00004547,-0.04715609,0.04810952,0.01104247\\-0.00022862,
 0.00024980,0.00005250,0.00017029,0.00062947,0.00000685,0.00040663,-0.0
 0010259,-0.00003605,0.00023034,-0.00024126,-0.00003991,-0.00016674,-0.
 00062785,-0.00000350,-0.00041406,0.00009652,0.00004293,0.00024698,0.00
 000563,-0.00001892,0.00015116,-0.00019281,-0.00004965,-0.00252707,0.00
 198154,0.00046497,-0.00023868,-0.00000555,0.00003325,-0.00015084,0.000
 18914,0.00004283,0.00251920,-0.00197857,-0.00048359,0.00231132,-0.0022
 9701,-0.00044564,-0.00230992,0.00229354,0.00043391\\\@


     SCHOPENHAUER'S LAW OF ENTROPY
 IF YOU PUT A SPOONFUL OF WINE IN A BARREL FULL
 OF SEWAGE, YOU GET SEWAGE.
 IF YOU PUT A SPOONFUL OF SEWAGE IN A BARREL FULL
 OF WINE, YOU GET SEWAGE.
 Job cpu time:       0 days  0 hours  5 minutes 58.5 seconds.
 File lengths (MBytes):  RWF=     34 Int=      0 D2E=      0 Chk=      2 Scr=      1
 Normal termination of Gaussian 09 at Wed Mar 18 11:16:57 2015.
