                  Welcome to Q-Chem
     A Quantum Leap Into The Future Of Chemistry


 Q-Chem 5.3 (devel), Q-Chem, Inc., Pleasanton, CA (2020)

 Yihan Shao,  Zhengting Gan,  E. Epifanovsky,  A. T. B. Gilbert,  M. Wormit,  
 J. Kussmann,  A. W. Lange,  A. Behn,  Jia Deng,  Xintian Feng,  D. Ghosh,  
 M. Goldey,  P. R. Horn,  L. D. Jacobson,  I. Kaliman,  T. Kus,  A. Landau,  
 Jie Liu,  E. I. Proynov,  R. M. Richard,  R. P. Steele,  E. J. Sundstrom,  
 H. L. Woodcock III,  P. M. Zimmerman,  D. Zuev,  B. Alam,  B. Albrecht,  
 A. Aldossary,  E. Alguire,  S. A. Baeppler,  D. Barton,  Z. Benda,  
 Y. A. Bernard,  E. J. Berquist,  K. B. Bravaya,  H. Burton,  K. Carter-Fenk,  
 D. Casanova,  Chun-Min Chang,  Yunqing Chen,  A. Chien,  K. D. Closser,  
 M. P. Coons,  S. Coriani,  S. Dasgupta,  A. L. Dempwolff,  M. Diedenhofen,  
 Hainam Do,  R. G. Edgar,  Po-Tung Fang,  S. Faraji,  S. Fatehi,  
 Qingguo Feng,  J. Fosso-Tande,  J. Gayvert,  Qinghui Ge,  A. Ghysels,  
 G. Gidofalvi,  J. Gomes,  J. Gonthier,  S. Gulania,  A. Gunina,  D. Hait,  
 M. W. D. Hanson-Heine,  S. Hammes-Schiffer,  P. H. P. Harbach,  
 A. W. Hauser,  M. F. Herbst,  J. E. Herr,  E. G. Hohenstein,  Z. C. Holden,  
 S. Houck,  Kerwin Hui,  B. C. Huynh,  M. Ivanov,  T.-C. Jagau,  Hyunjun Ji,  
 B. Kaduk,  K. Khistyaev,  Jaehoon Kim,  P. Klunzinger,  K. Koh,  
 D. Kosenkov,  L. Koulias,  T. Kowalczyk,  C. M. Krauter,  A. Kunitsa,  
 Ka Un Lao,  A. Laurent,  K. V. Lawler,  Joonho Lee,  D. Lefrancois,  
 S. Lehtola,  D. S. Levine,  Yi-Pei Li,  You-Sheng Lin,  Fenglai Liu,  
 Kuan-Yu Liu,  E. Livshits,  M. Loipersberger,  A. Luenser,  A. Manjanath,  
 P. Manohar,  E. Mansoor,  S. F. Manzer,  Shan-Ping Mao,  Yuezhi Mao,  
 N. Mardirossian,  A. V. Marenich,  T. Markovich,  L. A. Martinez-Martinez,  
 S. A. Maurer,  N. J. Mayhall,  S. C. McKenzie,  J.-M. Mewes,  P. Morgante,  
 A. F. Morrison,  J. W. Mullinax,  K. Nanda,  T. S. Nguyen-Beck,  
 R. Olivares-Amaya,  K. J. Oosterbaan,  J. A. Parkhill,  S. K. Paul,  
 F. Pavosevic,  Zheng Pei,  T. M. Perrine,  F. Plasser,  P. Pokhilko,  
 S. Prager,  A. Prociuk,  E. Ramos,  B. Rana,  D. R. Rehn,  F. Rob,  
 E. Rossomme,  M. Scheurer,  M. Schneider,  N. Sergueev,  S. M. Sharada,  
 S. Sharma,  W. Skomorowski,  D. W. Small,  T. Stauch,  C. J. Stein,  
 T. Stein,  Yu-Chuan Su,  S. P. Veccham,  Zhen Tao,  A. J. W. Thom,  
 A. Tkatchenko,  T. Tsuchimochi,  N. M. Tubman,  L. Vogt,  M. L. Vidal,  
 O. Vydrov,  M. A. Watson,  J. Wenzel,  M. de Wergifosse,  T. A. Wesolowski,  
 A. White,  J. Witte,  A. Yamada,  Jun Yang,  K. Yao,  S. Yeganeh,  
 S. R. Yost,  Zhi-Qiang You,  A. Zech,  Igor Ying Zhang,  Xing Zhang,  
 Yan Zhao,  Ying Zhu,  B. R. Brooks,  G. K. L. Chan,  C. J. Cramer,  
 M. S. Gordon,  W. J. Hehre,  A. Klamt,  M. W. Schmidt,  C. D. Sherrill,  
 D. G. Truhlar,  A. Aspuru-Guzik,  R. Baer,  A. T. Bell,  N. A. Besley,  
 Jeng-Da Chai,  A. E. DePrince, III,  R. A. DiStasio Jr.,  A. Dreuw,  
 B. D. Dunietz,  T. R. Furlani,  Chao-Ping Hsu,  Yousung Jung,  Jing Kong,  
 D. S. Lambrecht,  WanZhen Liang,  C. Ochsenfeld,  V. A. Rassolov,  
 L. V. Slipchenko,  J. E. Subotnik,  T. Van Voorhis,  J. M. Herbert,  
 A. I. Krylov,  P. M. W. Gill,  M. Head-Gordon

 Contributors to earlier versions of Q-Chem not listed above: 
 R. D. Adamson,  B. Austin,  J. Baker,  G. J. O. Beran,  K. Brandhorst,  
 S. T. Brown,  E. F. C. Byrd,  A. K. Chakraborty,  C.-L. Cheng,  
 Siu Hung Chien,  D. M. Chipman,  D. L. Crittenden,  H. Dachsel,  
 R. J. Doerksen,  A. D. Dutoi,  L. Fusti-Molnar,  W. A. Goddard III,  
 A. Golubeva-Zadorozhnaya,  S. R. Gwaltney,  G. Hawkins,  A. Heyden,  
 S. Hirata,  G. Kedziora,  F. J. Keil,  C. Kelley,  Jihan Kim,  R. A. King,  
 R. Z. Khaliullin,  P. P. Korambath,  W. Kurlancheek,  A. M. Lee,  M. S. Lee,  
 S. V. Levchenko,  Ching Yeh Lin,  D. Liotard,  R. C. Lochan,  I. Lotan,  
 P. E. Maslen,  N. Nair,  D. P. O'Neill,  D. Neuhauser,  E. Neuscamman,  
 C. M. Oana,  R. Olson,  B. Peters,  R. Peverati,  P. A. Pieniazek,  
 Y. M. Rhee,  J. Ritchie,  M. A. Rohrdanz,  E. Rosta,  N. J. Russ,  
 H. F. Schaefer III,  N. E. Schultz,  N. Shenvi,  A. C. Simmonett,  A. Sodt,  
 D. Stuck,  K. S. Thanthiriwatte,  V. Vanovschi,  Tao Wang,  A. Warshel,  
 C. F. Williams,  Q. Wu,  X. Xu,  W. Zhang

 Please cite Q-Chem as follows:
 Y. Shao et al., Mol. Phys. 113, 184-215 (2015)
 DOI: 10.1080/00268976.2014.952696

 Q-Chem 5.3.2 for Intel X86 EM64T Linux

 Parts of Q-Chem use Armadillo 9.800.1 (Horizon Scraper).
 http://arma.sourceforge.net/

 Q-Chem begins on Wed Jan 19 09:35:04 2022  

Host: xxxxx
0

     Scratch files written to /temp0/xxxxx/vertical.in//
Processing $rem in /usr/local/chem/qchem-5.4/config/preferences:
Processing $rem in /home/xxxxx/.qchemrc:


!!********************************************.
!!******************Warning*******************.
!!Desired Analytical derivatives not available.
!!Finite difference job might take a long time.
!!********************************************.
!!********************************************.


 2-order derivative to be evaluated numerically with 1-order analytical derivatives

Checking the input file for inconsistencies... 	...done.

--------------------------------------------------------------
User input:
--------------------------------------------------------------
$comment
S0 opt vertical analysis for S1 1-naphtol
$end

$molecule
0 1
O          1.0447360000          0.1377600000          0.0616010000
C          2.4033220000          0.0468270000          0.0402770000
C          3.0713040000         -1.1584480000          0.0430920000
C          4.4836180000         -1.1864030000          0.0198660000
C          5.2102110000         -0.0207830000         -0.0053240000
C          4.5455870000          1.2334930000         -0.0084310000
C          5.2574690000          2.4605440000         -0.0340060000
C          4.5938780000          3.6653710000         -0.0366240000
C          3.1808580000          3.7013260000         -0.0135510000
C          2.4572380000          2.5311560000          0.0114880000
C          3.1191430000          1.2783390000          0.0146750000
H          0.6722780000         -0.7490770000          0.0759860000
H          2.5073800000         -2.0937120000          0.0635900000
H          4.9930620000         -2.1506670000          0.0223380000
H          6.3001580000         -0.0448640000         -0.0231990000
H          6.3482200000          2.4310850000         -0.0518480000
H          5.1583340000          4.5985490000         -0.0567740000
H          2.6645220000          4.6618610000         -0.0158450000
H          1.3686910000          2.5512950000          0.0291970000
$end

$rem
JOBTYPE = freq
SPIN_FLIP = true
CIS_STATE_DERIV = 1
CIS_N_ROOTS = 5
CIS_SINGLETS = true
CIS_TRIPLETS = false
METHOD = PBE0
BASIS = aug-cc-pVDZ
SCF_CONVERGENCE = 9
SYM_IGNORE = true
IQMOL_FCHK = true
$end






--------------------------------------------------------------
 ----------------------------------------------------------------
             Standard Nuclear Orientation (Angstroms)
    I     Atom           X                Y                Z
 ----------------------------------------------------------------
    1      O       1.0447360000     0.1377600000     0.0616010000
    2      C       2.4033220000     0.0468270000     0.0402770000
    3      C       3.0713040000    -1.1584480000     0.0430920000
    4      C       4.4836180000    -1.1864030000     0.0198660000
    5      C       5.2102110000    -0.0207830000    -0.0053240000
    6      C       4.5455870000     1.2334930000    -0.0084310000
    7      C       5.2574690000     2.4605440000    -0.0340060000
    8      C       4.5938780000     3.6653710000    -0.0366240000
    9      C       3.1808580000     3.7013260000    -0.0135510000
   10      C       2.4572380000     2.5311560000     0.0114880000
   11      C       3.1191430000     1.2783390000     0.0146750000
   12      H       0.6722780000    -0.7490770000     0.0759860000
   13      H       2.5073800000    -2.0937120000     0.0635900000
   14      H       4.9930620000    -2.1506670000     0.0223380000
   15      H       6.3001580000    -0.0448640000    -0.0231990000
   16      H       6.3482200000     2.4310850000    -0.0518480000
   17      H       5.1583340000     4.5985490000    -0.0567740000
   18      H       2.6645220000     4.6618610000    -0.0158450000
   19      H       1.3686910000     2.5512950000     0.0291970000
 ----------------------------------------------------------------
 Nuclear Repulsion Energy =         551.80681554 hartrees
 There are       38 alpha and       38 beta electrons
 Requested basis set is aug-cc-pVDZ
 There are 139 shells and 325 basis functions

 Total QAlloc Memory Limit   2000 MB
 Mega-Array Size       188 MB
 MEM_STATIC part       192 MB
 A cutoff of  1.0D-12 yielded   9464 shell pairs
 There are     52034 function pairs (     59418 Cartesian)
 Smallest overlap matrix eigenvalue = 8.37E-07
 Linear dependence detected in AO basis
 Tighter screening thresholds may be required for diffuse basis sets
 Use S2THRESH > 14 and THRESH = 14 in case of SCF convergence issues
 Number of orthogonalized atomic orbitals = 324
 Maximum deviation from orthogonality = 1.833E-10
 Guess from superposition of atomic densities
 Warning:  Energy on first SCF cycle will be non-variational
 SAD guess density has 76.000000 electrons

 -----------------------------------------------------------------------
  General SCF calculation program by
  Eric Jon Sundstrom, Paul Horn, Yuezhi Mao, Dmitri Zuev, Alec White,
  David Stuck, Shaama M.S., Shane Yost, Joonho Lee, David Small,
  Daniel Levine, Susi Lehtola, Hugh Burton, Evgeny Epifanovsky,
  Bang C. Huynh
 -----------------------------------------------------------------------
 Exchange:     0.2500 Hartree-Fock + 0.7500 PBE
 Correlation:  1.0000 PBE
 Using SG-1 standard quadrature grid
 using 20 threads for integral computing
 -------------------------------------------------------
 OpenMP Integral computing Module                
 Release: version 1.0, May 2013, Q-Chem Inc. Pittsburgh 
 -------------------------------------------------------
 A restricted SCF calculation will be
 performed using DIIS
 SCF converges when DIIS error is below 1.0e-09
 ---------------------------------------
  Cycle       Energy         DIIS error
 ---------------------------------------
    1    -463.5154866333      3.53e-02  
    2    -460.4850703697      3.24e-03  
    3    -460.4653447672      3.53e-03  
    4    -460.6332357304      5.35e-04  
    5    -460.6362478582      2.70e-04  
    6    -460.6372584625      7.63e-05  
    7    -460.6373323827      2.73e-05  
    8    -460.6373420773      6.90e-06  
    9    -460.6373427581      1.51e-06  
   10    -460.6373427882      5.87e-07  
   11    -460.6373427929      2.14e-07  
   12    -460.6373427936      4.04e-08  
   13    -460.6373427936      2.13e-08  
   14    -460.6373427936      4.41e-09  
   15    -460.6373427936      2.72e-09  
   16    -460.6373427936      6.48e-10  Convergence criterion met
 ---------------------------------------
 SCF time:   CPU 765.53s  wall 47.00s 
 SCF   energy in the final basis set =     -460.6373427936
 Total energy in the final basis set =     -460.6373427936

 Direct TDDFT/TDA calculation will be performed
 Exchange:     0.2500 Hartree-Fock + 0.7500 PBE
 Correlation:  1.0000 PBE
 Using SG-1 standard quadrature grid
 Singlet excitation energies requested
 CIS energy converged when residual is below 10e- 6
 ---------------------------------------------------
 Iter    Rts Conv    Rts Left    Ttl Dev     Max Dev
 ---------------------------------------------------
   1         0           5      0.003030    0.001255
   2         0           5      0.001195    0.000644
   3         0           5      0.000518    0.000387
   4         0           5      0.000151    0.000101
   5         0           5      0.000043    0.000029
   6         2           3      0.000018    0.000013
   7         4           1      0.000006    0.000004
   8         4           1      0.000003    0.000002
   9         5           0      0.000002    0.000001    Roots Converged
 ---------------------------------------------------

 ---------------------------------------------------
         TDDFT/TDA Excitation Energies              
 ---------------------------------------------------

 Excited state   1: excitation energy (eV) =    4.3647
 Total energy for state  1:                  -460.47694218 au
    Multiplicity: Singlet
    Trans. Mom.: -0.8653 X   0.0492 Y   0.0136 Z
    Strength   :     0.0803538641
    D(   37) --> V(    2) amplitude =  0.2255
    D(   38) --> V(    1) amplitude =  0.9249

 Excited state   2: excitation energy (eV) =    4.4361
 Total energy for state  2:                  -460.47431875 au
    Multiplicity: Singlet
    Trans. Mom.: -0.1989 X  -0.4612 Y   0.0085 Z
    Strength   :     0.0274213885
    D(   37) --> V(    1) amplitude = -0.5911
    D(   38) --> V(    2) amplitude =  0.7752

 Excited state   3: excitation energy (eV) =    4.8884
 Total energy for state  3:                  -460.45769705 au
    Multiplicity: Singlet
    Trans. Mom.: -0.0002 X   0.0006 Y  -0.0356 Z
    Strength   :     0.0001521343
    D(   38) --> V(    3) amplitude =  0.9880

 Excited state   4: excitation energy (eV) =    5.3406
 Total energy for state  4:                  -460.44107987 au
    Multiplicity: Singlet
    Trans. Mom.: -0.0014 X  -0.0011 Y  -0.0702 Z
    Strength   :     0.0006449080
    D(   38) --> V(    4) amplitude =  0.9302
    D(   38) --> V(    5) amplitude =  0.3334

 Excited state   5: excitation energy (eV) =    5.4592
 Total energy for state  5:                  -460.43672155 au
    Multiplicity: Singlet
    Trans. Mom.:  0.0003 X  -0.0001 Y   0.0152 Z
    Strength   :     0.0000307937
    D(   38) --> V(    4) amplitude = -0.3283
    D(   38) --> V(    5) amplitude =  0.9309

 ---------------------------------------------------
 Calculating Relaxed Density
 ---------------------------------------------------
 Iter    Rts Conv    Rts Left    Ttl Dev     Max Dev
 ---------------------------------------------------
   1         0           5      0.001607    0.000423
   2         0           5      0.000590    0.000145
   3         0           5      0.000117    0.000030
   4         0           5      0.000019    0.000005
   5         1           4      0.000006    0.000002
   6         5           0      0.000000    0.000000    Roots Converged
 ---------------------------------------------------
  SETman timing summary (seconds)
  CPU time              1735.60s
  System time              0.00s
  Wall time               96.88s

 --------------------------------------------------------------

                    Orbital Energies (a.u.)
 --------------------------------------------------------------

 Alpha MOs
 -- Occupied --
-19.2652 -10.3044 -10.2498 -10.2473 -10.2437 -10.2407 -10.2398 -10.2396
-10.2391 -10.2385 -10.2338  -1.1067  -0.9037  -0.8506  -0.7974  -0.7713
 -0.7427  -0.6588  -0.6429  -0.6228  -0.5640  -0.5369  -0.5209  -0.4960
 -0.4681  -0.4443  -0.4410  -0.4405  -0.4213  -0.4055  -0.3875  -0.3864
 -0.3525  -0.3468  -0.3389  -0.2842  -0.2614  -0.2196
 -- Virtual --
 -0.0403  -0.0180  -0.0072   0.0062   0.0097   0.0235   0.0260   0.0280
  0.0459   0.0489   0.0557   0.0575   0.0741   0.0760   0.0797   0.0798
  0.0870   0.0875   0.0929   0.0990   0.1010   0.1051   0.1115   0.1140
  0.1202   0.1236   0.1241   0.1249   0.1411   0.1432   0.1462   0.1482
  0.1509   0.1583   0.1603   0.1615   0.1818   0.1945   0.1964   0.2044
  0.2050   0.2124   0.2168   0.2185   0.2327   0.2370   0.2388   0.2406
  0.2418   0.2462   0.2475   0.2542   0.2599   0.2625   0.2712   0.2716
  0.2747   0.2807   0.2851   0.2869   0.2872   0.2951   0.3028   0.3037
  0.3144   0.3254   0.3314   0.3334   0.3446   0.3459   0.3468   0.3604
  0.3765   0.3833   0.3859   0.3870   0.3989   0.3998   0.4137   0.4180
  0.4399   0.4428   0.4474   0.4474   0.4554   0.4581   0.4618   0.4842
  0.4984   0.5057   0.5108   0.5132   0.5210   0.5242   0.5399   0.5489
  0.5533   0.5607   0.5668   0.5716   0.5725   0.5748   0.5823   0.5870
  0.5874   0.5904   0.5972   0.5990   0.6102   0.6119   0.6161   0.6297
  0.6307   0.6336   0.6452   0.6481   0.6605   0.6615   0.6687   0.6743
  0.6915   0.7092   0.7116   0.7299   0.7328   0.7463   0.7507   0.7587
  0.7629   0.7642   0.7674   0.7769   0.7787   0.7810   0.7884   0.7969
  0.8049   0.8097   0.8301   0.8476   0.8494   0.8553   0.8621   0.8714
  0.8967   0.9016   0.9100   0.9125   0.9262   0.9486   0.9517   0.9998
  1.0002   1.0079   1.0116   1.0524   1.0776   1.0855   1.1026   1.1107
  1.1234   1.1340   1.1763   1.2185   1.2375   1.2420   1.2675   1.2733
  1.2857   1.2912   1.3000   1.3054   1.3223   1.3369   1.3371   1.3548
  1.3637   1.4014   1.4065   1.4090   1.4182   1.4253   1.4381   1.4422
  1.4551   1.4607   1.4719   1.4848   1.4959   1.5183   1.5261   1.5300
  1.5336   1.5474   1.5475   1.5674   1.5772   1.5980   1.6037   1.6151
  1.6240   1.6263   1.6528   1.6751   1.6881   1.6953   1.7114   1.7178
  1.7265   1.7496   1.7537   1.7689   1.7720   1.7854   1.8094   1.8164
  1.8237   1.8421   1.8565   1.8631   1.8661   1.8801   1.8945   1.9034
  1.9073   1.9185   1.9269   1.9598   1.9651   1.9966   2.0134   2.0195
  2.0431   2.0485   2.0534   2.0539   2.0779   2.0809   2.1020   2.1135
  2.1227   2.1396   2.1487   2.1685   2.1866   2.2126   2.2357   2.2511
  2.2514   2.2980   2.3201   2.3406   2.3909   2.4194   2.4336   2.4925
  2.5102   2.5403   2.5459   2.6134   2.6502   2.6672   2.7131   2.7475
  2.7669   2.7869   2.8294   2.8512   2.8826   2.9409   3.0252   3.0427
  3.1045   3.1288   3.2418   3.3727   3.3908   3.4032   3.4590   3.5003
  3.5154   3.6190   3.6768   4.0173   4.2436   4.5702
 --------------------------------------------------------------

          Ground-State Mulliken Net Atomic Charges

     Atom                 Charge (a.u.)
  ----------------------------------------
      1 O                    -0.809800
      2 C                    -0.059192
      3 C                     0.802752
      4 C                     0.194681
      5 C                     0.350345
      6 C                     1.513288
      7 C                     0.455482
      8 C                     0.300914
      9 C                     0.139261
     10 C                     0.538216
     11 C                     1.347882
     12 H                     0.254200
     13 H                    -0.797049
     14 H                    -0.609463
     15 H                    -0.783345
     16 H                    -0.780224
     17 H                    -0.615273
     18 H                    -0.613161
     19 H                    -0.829512
  ----------------------------------------
  Sum of atomic charges =     0.000000

 -----------------------------------------------------------------
                    Cartesian Multipole Moments
 -----------------------------------------------------------------
    Charge (ESU x 10^10)
                -0.0000
    Dipole Moment (Debye)
         X      -0.2725      Y      -1.1753      Z       0.0151
       Tot       1.2066
    Quadrupole Moments (Debye-Ang)
        XX     -58.7154     XY       0.0360     YY     -55.3288
        XZ      -0.2030     YZ      -0.2537     ZZ     -69.5036
    Octopole Moments (Debye-Ang^2)
       XXX    -622.2374    XXY     -63.0721    XYY    -201.1669
       YYY    -193.8857    XXZ      -2.0690    XYZ      -0.8628
       YYZ      -0.7682    XZZ    -251.6119    YZZ     -80.6164
       ZZZ      -1.6050
    Hexadecapole Moments (Debye-Ang^3)
      XXXX   -5151.0025   XXXY    -744.7480   XXYY   -1109.3962
      XYYY    -746.5890   YYYY   -1578.8533   XXXZ      -9.6621
      XXYZ      -2.6279   XYYZ      -2.1869   YYYZ       2.8340
      XXZZ   -1067.4297   XYZZ    -310.9398   YYZZ    -344.3765
      XZZZ       1.2616   YZZZ       6.6636   ZZZZ     -80.5889
 -----------------------------------------------------------------
 Calculating analytic gradient of the CIS energy
 CIS relaxed dipole moment
            1
    1  -0.2963249
    2  -1.4383324
    3   0.0203196
	Magnitude:	 1.469 au	 3.733 Debye
 CIS 1 State Energy is -460.4769421843
 Gradient of the state energy (including CIS Excitation Energy)
            1           2           3           4           5           6
    1  -0.0173743   0.0166746  -0.0284334   0.0352978  -0.0047457  -0.0048553
    2   0.0026567  -0.0351144   0.0387464   0.0307601  -0.0287209  -0.0076354
    3   0.0002907   0.0001128   0.0000540  -0.0009173   0.0004178   0.0001705
            7           8           9          10          11          12
    1  -0.0195387   0.0337663  -0.0371579   0.0224051   0.0019997   0.0014452
    2   0.0326771  -0.0369017  -0.0247310   0.0227061   0.0019021   0.0030536
    3  -0.0000535  -0.0001477   0.0008891  -0.0006261  -0.0000827  -0.0000748
           13          14          15          16          17          18
    1  -0.0011158   0.0011055  -0.0001064   0.0004256   0.0012784  -0.0005078
    2   0.0003820   0.0001648  -0.0000568   0.0005903  -0.0001762  -0.0002783
    3   0.0000084  -0.0000203   0.0000030  -0.0000085  -0.0000184   0.0000040
           19
    1  -0.0005629
    2  -0.0000246
    3  -0.0000011
 Gradient time:  CPU 282.25 s  wall 15.36 s
 ######################################################
 ######################################################
 # Starting finite difference calculation for IDERIV  #
 Finite diff step size:  1.88973e-03 a.u.
 ----------------------------------------------------------------
             Standard Nuclear Orientation (Angstroms)
    I     Atom           X                Y                Z
 ----------------------------------------------------------------
    1      O       1.0457360000     0.1377600000     0.0616010000
    2      C       2.4033220000     0.0468270000     0.0402770000
    3      C       3.0713040000    -1.1584480000     0.0430920000
    4      C       4.4836180000    -1.1864030000     0.0198660000
    5      C       5.2102110000    -0.0207830000    -0.0053240000
    6      C       4.5455870000     1.2334930000    -0.0084310000
    7      C       5.2574690000     2.4605440000    -0.0340060000
    8      C       4.5938780000     3.6653710000    -0.0366240000
    9      C       3.1808580000     3.7013260000    -0.0135510000
   10      C       2.4572380000     2.5311560000     0.0114880000
   11      C       3.1191430000     1.2783390000     0.0146750000
   12      H       0.6722780000    -0.7490770000     0.0759860000
   13      H       2.5073800000    -2.0937120000     0.0635900000
   14      H       4.9930620000    -2.1506670000     0.0223380000
   15      H       6.3001580000    -0.0448640000    -0.0231990000
   16      H       6.3482200000     2.4310850000    -0.0518480000
   17      H       5.1583340000     4.5985490000    -0.0567740000
   18      H       2.6645220000     4.6618610000    -0.0158450000
   19      H       1.3686910000     2.5512950000     0.0291970000
 ----------------------------------------------------------------
 Nuclear Repulsion Energy =         551.83650567 hartrees
 There are       38 alpha and       38 beta electrons
 Requested basis set is aug-cc-pVDZ
 There are 139 shells and 325 basis functions
 A cutoff of  1.0D-12 yielded   9464 shell pairs
 There are     52034 function pairs (     59418 Cartesian)
 Smallest overlap matrix eigenvalue = 8.37E-07
 Linear dependence detected in AO basis
 Tighter screening thresholds may be required for diffuse basis sets
 Use S2THRESH > 14 and THRESH = 14 in case of SCF convergence issues
 Number of orthogonalized atomic orbitals = 324
 Maximum deviation from orthogonality = 1.722E-10
 Guess MOs from SCF MO coefficient file

 -----------------------------------------------------------------------
  General SCF calculation program by
  Eric Jon Sundstrom, Paul Horn, Yuezhi Mao, Dmitri Zuev, Alec White,
  David Stuck, Shaama M.S., Shane Yost, Joonho Lee, David Small,
  Daniel Levine, Susi Lehtola, Hugh Burton, Evgeny Epifanovsky,
  Bang C. Huynh
 -----------------------------------------------------------------------
 Exchange:     0.2500 Hartree-Fock + 0.7500 PBE
 Correlation:  1.0000 PBE
 Using SG-1 standard quadrature grid
 using 20 threads for integral computing
 -------------------------------------------------------
 OpenMP Integral computing Module                
 Release: version 1.0, May 2013, Q-Chem Inc. Pittsburgh 
 -------------------------------------------------------
 A restricted SCF calculation will be
 performed using DIIS
 SCF converges when DIIS error is below 1.0e-09
 ---------------------------------------
  Cycle       Energy         DIIS error
 ---------------------------------------
    1    -460.6373411150      8.14e-06  
    2    -460.6373418645      1.74e-06  
    3    -460.6373418692      1.71e-06  
    4    -460.6373418977      4.39e-07  
    5    -460.6373418994      1.18e-07  
    6    -460.6373418996      4.47e-08  
    7    -460.6373418996      1.55e-08  
    8    -460.6373418996      3.86e-09  
    9    -460.6373418996      1.77e-09  
   10    -460.6373418996      6.76e-10  Convergence criterion met
 ---------------------------------------
 SCF time:   CPU 499.43s  wall 30.00s 
 SCF   energy in the final basis set =     -460.6373418996
 Total energy in the final basis set =     -460.6373418996

 Direct TDDFT/TDA calculation will be performed
 Exchange:     0.2500 Hartree-Fock + 0.7500 PBE
 Correlation:  1.0000 PBE
 Using SG-1 standard quadrature grid
 Singlet excitation energies requested
 CIS energy converged when residual is below 10e- 6
 ---------------------------------------------------
 Iter    Rts Conv    Rts Left    Ttl Dev     Max Dev
 ---------------------------------------------------
   1         0           5      0.003030    0.001255
   2         0           5      0.001194    0.000645
   3         0           5      0.000518    0.000387
   4         0           5      0.000151    0.000101
   5         0           5      0.000043    0.000029
   6         2           3      0.000018    0.000013
   7         4           1      0.000005    0.000004
   8         4           1      0.000003    0.000002
   9         5           0      0.000002    0.000001    Roots Converged
 ---------------------------------------------------

 ---------------------------------------------------
         TDDFT/TDA Excitation Energies              
 ---------------------------------------------------

 Excited state   1: excitation energy (eV) =    4.3638
 Total energy for state  1:                  -460.47697420 au
    Multiplicity: Singlet
    Trans. Mom.: -0.8656 X   0.0484 Y   0.0136 Z
    Strength   :     0.0803776025
    D(   37) --> V(    2) amplitude =  0.2254
    D(   38) --> V(    1) amplitude =  0.9254

 Excited state   2: excitation energy (eV) =    4.4357
 Total energy for state  2:                  -460.47433318 au
    Multiplicity: Singlet
    Trans. Mom.: -0.1970 X  -0.4626 Y   0.0084 Z
    Strength   :     0.0274775540
    D(   37) --> V(    1) amplitude = -0.5911
    D(   38) --> V(    2) amplitude =  0.7757

 Excited state   3: excitation energy (eV) =    4.8852
 Total energy for state  3:                  -460.45781363 au
    Multiplicity: Singlet
    Trans. Mom.: -0.0002 X   0.0006 Y  -0.0354 Z
    Strength   :     0.0001501423
    D(   38) --> V(    3) amplitude =  0.9880

 Excited state   4: excitation energy (eV) =    5.3388
 Total energy for state  4:                  -460.44114433 au
    Multiplicity: Singlet
    Trans. Mom.: -0.0014 X  -0.0011 Y  -0.0704 Z
    Strength   :     0.0006486505
    D(   38) --> V(    4) amplitude =  0.9301
    D(   38) --> V(    5) amplitude =  0.3336

 Excited state   5: excitation energy (eV) =    5.4576
 Total energy for state  5:                  -460.43677834 au
    Multiplicity: Singlet
    Trans. Mom.:  0.0003 X  -0.0001 Y   0.0154 Z
    Strength   :     0.0000318546
    D(   38) --> V(    4) amplitude = -0.3284
    D(   38) --> V(    5) amplitude =  0.9309

 ---------------------------------------------------
 Calculating Relaxed Density
 ---------------------------------------------------
 Iter    Rts Conv    Rts Left    Ttl Dev     Max Dev
 ---------------------------------------------------
   1         0           5      0.001608    0.000423
   2         0           5      0.000590    0.000145
   3         0           5      0.000118    0.000030
   4         0           5      0.000019    0.000005
   5         1           4      0.000006    0.000002
   6         5           0      0.000000    0.000000    Roots Converged
 ---------------------------------------------------
  SETman timing summary (seconds)
  CPU time              1737.86s
  System time              0.00s
  Wall time               96.81s

 --------------------------------------------------------------

                    Orbital Energies (a.u.)
 --------------------------------------------------------------

 Alpha MOs
 -- Occupied --
-19.2653 -10.3044 -10.2498 -10.2472 -10.2437 -10.2406 -10.2398 -10.2395
-10.2391 -10.2384 -10.2337  -1.1070  -0.9037  -0.8505  -0.7973  -0.7712
 -0.7426  -0.6589  -0.6429  -0.6228  -0.5640  -0.5369  -0.5209  -0.4959
 -0.4681  -0.4443  -0.4412  -0.4405  -0.4213  -0.4054  -0.3875  -0.3865
 -0.3525  -0.3467  -0.3388  -0.2842  -0.2613  -0.2195
 -- Virtual --
 -0.0402  -0.0179  -0.0072   0.0062   0.0097   0.0235   0.0261   0.0280
  0.0459   0.0489   0.0558   0.0575   0.0741   0.0760   0.0797   0.0798
  0.0869   0.0875   0.0929   0.0990   0.1010   0.1051   0.1115   0.1140
  0.1202   0.1236   0.1241   0.1249   0.1412   0.1432   0.1462   0.1482
  0.1510   0.1583   0.1603   0.1615   0.1819   0.1946   0.1964   0.2044
  0.2050   0.2124   0.2169   0.2186   0.2327   0.2370   0.2388   0.2406
  0.2418   0.2462   0.2475   0.2542   0.2599   0.2625   0.2712   0.2716
  0.2747   0.2807   0.2851   0.2870   0.2872   0.2951   0.3028   0.3038
  0.3145   0.3254   0.3314   0.3333   0.3446   0.3460   0.3468   0.3604
  0.3765   0.3834   0.3860   0.3870   0.3989   0.3998   0.4138   0.4181
  0.4399   0.4428   0.4474   0.4475   0.4554   0.4582   0.4618   0.4842
  0.4984   0.5057   0.5108   0.5132   0.5210   0.5242   0.5399   0.5490
  0.5532   0.5607   0.5668   0.5717   0.5725   0.5748   0.5823   0.5871
  0.5874   0.5905   0.5972   0.5990   0.6102   0.6119   0.6161   0.6297
  0.6307   0.6336   0.6452   0.6482   0.6605   0.6616   0.6688   0.6743
  0.6915   0.7093   0.7116   0.7299   0.7328   0.7463   0.7507   0.7588
  0.7629   0.7643   0.7674   0.7769   0.7787   0.7810   0.7884   0.7969
  0.8050   0.8097   0.8302   0.8476   0.8495   0.8553   0.8622   0.8714
  0.8967   0.9016   0.9101   0.9125   0.9262   0.9486   0.9517   0.9999
  1.0002   1.0078   1.0116   1.0524   1.0775   1.0855   1.1026   1.1107
  1.1235   1.1340   1.1763   1.2186   1.2376   1.2420   1.2675   1.2734
  1.2857   1.2912   1.3001   1.3054   1.3222   1.3369   1.3371   1.3548
  1.3638   1.4015   1.4065   1.4090   1.4182   1.4253   1.4381   1.4423
  1.4551   1.4607   1.4719   1.4847   1.4959   1.5184   1.5262   1.5300
  1.5336   1.5474   1.5476   1.5675   1.5773   1.5981   1.6038   1.6151
  1.6240   1.6264   1.6527   1.6751   1.6882   1.6953   1.7114   1.7178
  1.7265   1.7497   1.7537   1.7689   1.7721   1.7855   1.8095   1.8164
  1.8237   1.8421   1.8565   1.8631   1.8661   1.8802   1.8945   1.9034
  1.9074   1.9185   1.9269   1.9599   1.9651   1.9966   2.0135   2.0196
  2.0431   2.0485   2.0535   2.0540   2.0779   2.0810   2.1021   2.1136
  2.1227   2.1396   2.1488   2.1686   2.1868   2.2126   2.2357   2.2511
  2.2513   2.2978   2.3201   2.3408   2.3909   2.4195   2.4335   2.4926
  2.5102   2.5404   2.5459   2.6135   2.6503   2.6672   2.7131   2.7475
  2.7669   2.7868   2.8297   2.8513   2.8827   2.9414   3.0253   3.0426
  3.1045   3.1290   3.2417   3.3727   3.3907   3.4031   3.4592   3.5004
  3.5154   3.6191   3.6772   4.0166   4.2436   4.5702
 --------------------------------------------------------------

          Ground-State Mulliken Net Atomic Charges

     Atom                 Charge (a.u.)
  ----------------------------------------
      1 O                    -0.809998
      2 C                    -0.057199
      3 C                     0.802581
      4 C                     0.193919
      5 C                     0.350442
      6 C                     1.512075
      7 C                     0.455414
      8 C                     0.300854
      9 C                     0.139269
     10 C                     0.537799
     11 C                     1.348384
     12 H                     0.254957
     13 H                    -0.797273
     14 H                    -0.609493
     15 H                    -0.783384
     16 H                    -0.780233
     17 H                    -0.615286
     18 H                    -0.613189
     19 H                    -0.829640
  ----------------------------------------
  Sum of atomic charges =     0.000000

 -----------------------------------------------------------------
                    Cartesian Multipole Moments
 -----------------------------------------------------------------
    Charge (ESU x 10^10)
                 0.0000
    Dipole Moment (Debye)
         X      -0.2798      Y      -1.1763      Z       0.0152
       Tot       1.2092
    Quadrupole Moments (Debye-Ang)
        XX     -58.7491     XY       0.0337     YY     -55.3387
        XZ      -0.2030     YZ      -0.2536     ZZ     -69.5032
    Octopole Moments (Debye-Ang^2)
       XXX    -622.4180    XXY     -63.0812    XYY    -201.2054
       YYY    -193.9089    XXZ      -2.0690    XYZ      -0.8625
       YYZ      -0.7681    XZZ    -251.6228    YZZ     -80.6170
       ZZZ      -1.6046
    Hexadecapole Moments (Debye-Ang^3)
      XXXX   -5151.9542   XXXY    -744.7981   XXYY   -1109.5377
      XYYY    -746.6689   YYYY   -1578.9982   XXXZ      -9.6625
      XXYZ      -2.6268   XYYZ      -2.1871   YYYZ       2.8347
      XXZZ   -1067.4731   XYZZ    -310.9428   YYZZ    -344.3869
      XZZZ       1.2609   YZZZ       6.6639   ZZZZ     -80.5907
 -----------------------------------------------------------------
 Calculating analytic gradient of the CIS energy
 CIS relaxed dipole moment
            1
    1  -0.2994258
    2  -1.4423454
    3   0.0204090
	Magnitude:	 1.473 au	 3.745 Debye
 CIS 1 State Energy is -460.4769741964
 Gradient of the state energy (including CIS Excitation Energy)
            1           2           3           4           5           6
    1  -0.0165044   0.0161368  -0.0285526   0.0353009  -0.0047262  -0.0047560
    2   0.0029404  -0.0350416   0.0387486   0.0307973  -0.0287048  -0.0076214
    3   0.0002753   0.0001196   0.0000563  -0.0009176   0.0004172   0.0001689
            7           8           9          10          11          12
    1  -0.0195876   0.0338273  -0.0372075   0.0224405   0.0018547   0.0012536
    2   0.0326524  -0.0368754  -0.0247769   0.0227468   0.0018354   0.0027026
    3  -0.0000525  -0.0001489   0.0008903  -0.0006272  -0.0000794  -0.0000691
           13          14          15          16          17          18
    1  -0.0011074   0.0011058  -0.0001070   0.0004259   0.0012770  -0.0005103
    2   0.0003823   0.0001642  -0.0000555   0.0005899  -0.0001784  -0.0002789
    3   0.0000082  -0.0000203   0.0000030  -0.0000085  -0.0000183   0.0000040
           19
    1  -0.0005634
    2  -0.0000273
    3  -0.0000010
 Gradient time:  CPU 282.50 s  wall 15.34 s
 ----------------------------------------------------------------
             Standard Nuclear Orientation (Angstroms)
    I     Atom           X                Y                Z
 ----------------------------------------------------------------
    1      O       1.0437360000     0.1377600000     0.0616010000
    2      C       2.4033220000     0.0468270000     0.0402770000
    3      C       3.0713040000    -1.1584480000     0.0430920000
    4      C       4.4836180000    -1.1864030000     0.0198660000
    5      C       5.2102110000    -0.0207830000    -0.0053240000
    6      C       4.5455870000     1.2334930000    -0.0084310000
    7      C       5.2574690000     2.4605440000    -0.0340060000
    8      C       4.5938780000     3.6653710000    -0.0366240000
    9      C       3.1808580000     3.7013260000    -0.0135510000
   10      C       2.4572380000     2.5311560000     0.0114880000
   11      C       3.1191430000     1.2783390000     0.0146750000
   12      H       0.6722780000    -0.7490770000     0.0759860000
   13      H       2.5073800000    -2.0937120000     0.0635900000
   14      H       4.9930620000    -2.1506670000     0.0223380000
   15      H       6.3001580000    -0.0448640000    -0.0231990000
   16      H       6.3482200000     2.4310850000    -0.0518480000
   17      H       5.1583340000     4.5985490000    -0.0567740000
   18      H       2.6645220000     4.6618610000    -0.0158450000
   19      H       1.3686910000     2.5512950000     0.0291970000
 ----------------------------------------------------------------
 Nuclear Repulsion Energy =         551.77714962 hartrees
 There are       38 alpha and       38 beta electrons
 Requested basis set is aug-cc-pVDZ
 There are 139 shells and 325 basis functions
 A cutoff of  1.0D-12 yielded   9464 shell pairs
 There are     52034 function pairs (     59418 Cartesian)
 Smallest overlap matrix eigenvalue = 8.37E-07
 Linear dependence detected in AO basis
 Tighter screening thresholds may be required for diffuse basis sets
 Use S2THRESH > 14 and THRESH = 14 in case of SCF convergence issues
 Number of orthogonalized atomic orbitals = 324
 Maximum deviation from orthogonality = 2.700E-10
 Guess MOs from SCF MO coefficient file

 -----------------------------------------------------------------------
  General SCF calculation program by
  Eric Jon Sundstrom, Paul Horn, Yuezhi Mao, Dmitri Zuev, Alec White,
  David Stuck, Shaama M.S., Shane Yost, Joonho Lee, David Small,
  Daniel Levine, Susi Lehtola, Hugh Burton, Evgeny Epifanovsky,
  Bang C. Huynh
 -----------------------------------------------------------------------
 Exchange:     0.2500 Hartree-Fock + 0.7500 PBE
 Correlation:  1.0000 PBE
 Using SG-1 standard quadrature grid
 using 20 threads for integral computing
 -------------------------------------------------------
 OpenMP Integral computing Module                
 Release: version 1.0, May 2013, Q-Chem Inc. Pittsburgh 
 -------------------------------------------------------
 A restricted SCF calculation will be
 performed using DIIS
 SCF converges when DIIS error is below 1.0e-09
 ---------------------------------------
  Cycle       Energy         DIIS error
 ---------------------------------------
    1    -460.6373387899      1.63e-05  
    2    -460.6373417739      3.48e-06  
    3    -460.6373417917      3.44e-06  
    4    -460.6373419068      8.77e-07  
    5    -460.6373419136      2.36e-07  
    6    -460.6373419143      8.92e-08  
    7    -460.6373419144      3.10e-08  
    8    -460.6373419144      7.72e-09  
    9    -460.6373419144      3.55e-09  
   10    -460.6373419144      1.35e-09  
   11    -460.6373419144      3.83e-10  Convergence criterion met
 ---------------------------------------
 SCF time:   CPU 549.60s  wall 33.00s 
 SCF   energy in the final basis set =     -460.6373419144
 Total energy in the final basis set =     -460.6373419144

 Direct TDDFT/TDA calculation will be performed
 Exchange:     0.2500 Hartree-Fock + 0.7500 PBE
 Correlation:  1.0000 PBE
 Using SG-1 standard quadrature grid
 Singlet excitation energies requested
 CIS energy converged when residual is below 10e- 6
 ---------------------------------------------------
 Iter    Rts Conv    Rts Left    Ttl Dev     Max Dev
 ---------------------------------------------------
   1         0           5      0.003029    0.001255
   2         0           5      0.001195    0.000644
   3         0           5      0.000519    0.000388
   4         0           5      0.000151    0.000101
   5         0           5      0.000044    0.000029
   6         2           3      0.000018    0.000013
   7         4           1      0.000006    0.000004
   8         4           1      0.000003    0.000002
   9         5           0      0.000002    0.000001    Roots Converged
 ---------------------------------------------------

 ---------------------------------------------------
         TDDFT/TDA Excitation Energies              
 ---------------------------------------------------

 Excited state   1: excitation energy (eV) =    4.3656
 Total energy for state  1:                  -460.47690853 au
    Multiplicity: Singlet
    Trans. Mom.: -0.8651 X   0.0500 Y   0.0136 Z
    Strength   :     0.0803284916
    D(   37) --> V(    2) amplitude =  0.2256
    D(   38) --> V(    1) amplitude =  0.9245

 Excited state   2: excitation energy (eV) =    4.4365
 Total energy for state  2:                  -460.47430256 au
    Multiplicity: Singlet
    Trans. Mom.: -0.2008 X  -0.4598 Y   0.0085 Z
    Strength   :     0.0273672177
    D(   37) --> V(    1) amplitude = -0.5911
    D(   38) --> V(    2) amplitude =  0.7747

 Excited state   3: excitation energy (eV) =    4.8916
 Total energy for state  3:                  -460.45757919 au
    Multiplicity: Singlet
    Trans. Mom.: -0.0002 X   0.0006 Y  -0.0359 Z
    Strength   :     0.0001541371
    D(   38) --> V(    3) amplitude =  0.9880

 Excited state   4: excitation energy (eV) =    5.3424
 Total energy for state  4:                  -460.44101372 au
    Multiplicity: Singlet
    Trans. Mom.: -0.0014 X  -0.0011 Y  -0.0700 Z
    Strength   :     0.0006411518
    D(   38) --> V(    4) amplitude =  0.9302
    D(   38) --> V(    5) amplitude =  0.3333

 Excited state   5: excitation energy (eV) =    5.4607
 Total energy for state  5:                  -460.43666315 au
    Multiplicity: Singlet
    Trans. Mom.:  0.0003 X  -0.0001 Y   0.0149 Z
    Strength   :     0.0000297538
    D(   38) --> V(    4) amplitude = -0.3282
    D(   38) --> V(    5) amplitude =  0.9309

 ---------------------------------------------------
 Calculating Relaxed Density
 ---------------------------------------------------
 Iter    Rts Conv    Rts Left    Ttl Dev     Max Dev
 ---------------------------------------------------
   1         0           5      0.001605    0.000423
   2         0           5      0.000590    0.000145
   3         0           5      0.000117    0.000030
   4         0           5      0.000019    0.000005
   5         1           4      0.000005    0.000002
   6         5           0      0.000000    0.000000    Roots Converged
 ---------------------------------------------------
  SETman timing summary (seconds)
  CPU time              1738.16s
  System time              0.00s
  Wall time               97.33s

 --------------------------------------------------------------

                    Orbital Energies (a.u.)
 --------------------------------------------------------------

 Alpha MOs
 -- Occupied --
-19.2651 -10.3045 -10.2498 -10.2473 -10.2438 -10.2407 -10.2399 -10.2396
-10.2391 -10.2385 -10.2339  -1.1064  -0.9038  -0.8506  -0.7974  -0.7713
 -0.7427  -0.6588  -0.6429  -0.6227  -0.5639  -0.5369  -0.5209  -0.4960
 -0.4680  -0.4443  -0.4409  -0.4406  -0.4214  -0.4055  -0.3876  -0.3864
 -0.3526  -0.3468  -0.3389  -0.2842  -0.2614  -0.2197
 -- Virtual --
 -0.0403  -0.0180  -0.0071   0.0062   0.0097   0.0235   0.0260   0.0280
  0.0459   0.0489   0.0557   0.0575   0.0741   0.0760   0.0797   0.0799
  0.0870   0.0874   0.0929   0.0990   0.1010   0.1051   0.1115   0.1139
  0.1202   0.1236   0.1241   0.1248   0.1411   0.1432   0.1462   0.1482
  0.1509   0.1583   0.1603   0.1616   0.1818   0.1945   0.1964   0.2043
  0.2050   0.2125   0.2168   0.2185   0.2327   0.2370   0.2388   0.2406
  0.2418   0.2462   0.2475   0.2542   0.2599   0.2625   0.2712   0.2716
  0.2747   0.2807   0.2851   0.2869   0.2872   0.2950   0.3028   0.3037
  0.3144   0.3254   0.3313   0.3334   0.3445   0.3459   0.3467   0.3604
  0.3764   0.3833   0.3859   0.3870   0.3989   0.3998   0.4137   0.4180
  0.4398   0.4427   0.4474   0.4474   0.4554   0.4581   0.4617   0.4842
  0.4984   0.5056   0.5108   0.5132   0.5210   0.5242   0.5399   0.5489
  0.5533   0.5606   0.5668   0.5716   0.5725   0.5748   0.5823   0.5870
  0.5873   0.5904   0.5972   0.5990   0.6102   0.6119   0.6160   0.6296
  0.6307   0.6336   0.6451   0.6481   0.6605   0.6615   0.6687   0.6743
  0.6914   0.7092   0.7116   0.7299   0.7328   0.7463   0.7507   0.7587
  0.7629   0.7642   0.7673   0.7769   0.7787   0.7810   0.7883   0.7969
  0.8049   0.8096   0.8301   0.8476   0.8494   0.8553   0.8621   0.8714
  0.8967   0.9016   0.9100   0.9126   0.9262   0.9486   0.9517   0.9998
  1.0001   1.0079   1.0116   1.0524   1.0776   1.0855   1.1026   1.1107
  1.1234   1.1340   1.1762   1.2185   1.2375   1.2420   1.2674   1.2732
  1.2856   1.2911   1.3000   1.3053   1.3224   1.3370   1.3370   1.3548
  1.3637   1.4014   1.4065   1.4089   1.4182   1.4252   1.4380   1.4422
  1.4551   1.4606   1.4718   1.4848   1.4959   1.5182   1.5260   1.5299
  1.5335   1.5474   1.5475   1.5673   1.5772   1.5979   1.6037   1.6151
  1.6239   1.6261   1.6528   1.6750   1.6881   1.6952   1.7113   1.7178
  1.7265   1.7494   1.7536   1.7689   1.7719   1.7854   1.8093   1.8164
  1.8236   1.8420   1.8565   1.8631   1.8661   1.8800   1.8945   1.9034
  1.9073   1.9185   1.9269   1.9596   1.9650   1.9966   2.0133   2.0195
  2.0431   2.0485   2.0533   2.0539   2.0779   2.0808   2.1020   2.1135
  2.1226   2.1395   2.1485   2.1684   2.1864   2.2127   2.2357   2.2511
  2.2515   2.2983   2.3201   2.3404   2.3909   2.4194   2.4336   2.4925
  2.5102   2.5403   2.5458   2.6133   2.6502   2.6672   2.7131   2.7474
  2.7669   2.7870   2.8291   2.8512   2.8826   2.9404   3.0251   3.0427
  3.1045   3.1287   3.2419   3.3727   3.3909   3.4033   3.4589   3.5002
  3.5153   3.6188   3.6764   4.0181   4.2436   4.5702
 --------------------------------------------------------------

          Ground-State Mulliken Net Atomic Charges

     Atom                 Charge (a.u.)
  ----------------------------------------
      1 O                    -0.809599
      2 C                    -0.061201
      3 C                     0.802927
      4 C                     0.195440
      5 C                     0.350248
      6 C                     1.514498
      7 C                     0.455551
      8 C                     0.300972
      9 C                     0.139254
     10 C                     0.538633
     11 C                     1.347388
     12 H                     0.253445
     13 H                    -0.796826
     14 H                    -0.609434
     15 H                    -0.783306
     16 H                    -0.780216
     17 H                    -0.615261
     18 H                    -0.613133
     19 H                    -0.829383
  ----------------------------------------
  Sum of atomic charges =     0.000000

 -----------------------------------------------------------------
                    Cartesian Multipole Moments
 -----------------------------------------------------------------
    Charge (ESU x 10^10)
                 0.0000
    Dipole Moment (Debye)
         X      -0.2651      Y      -1.1744      Z       0.0150
       Tot       1.2040
    Quadrupole Moments (Debye-Ang)
        XX     -58.6818     XY       0.0383     YY     -55.3190
        XZ      -0.2030     YZ      -0.2538     ZZ     -69.5039
    Octopole Moments (Debye-Ang^2)
       XXX    -622.0570    XXY     -63.0629    XYY    -201.1284
       YYY    -193.8626    XXZ      -2.0690    XYZ      -0.8630
       YYZ      -0.7682    XZZ    -251.6010    YZZ     -80.6158
       ZZZ      -1.6054
    Hexadecapole Moments (Debye-Ang^3)
      XXXX   -5150.0525   XXXY    -744.6979   XXYY   -1109.2549
      XYYY    -746.5092   YYYY   -1578.7087   XXXZ      -9.6616
      XXYZ      -2.6290   XYYZ      -2.1868   YYYZ       2.8332
      XXZZ   -1067.3863   XYZZ    -310.9368   YYZZ    -344.3661
      XZZZ       1.2622   YZZZ       6.6632   ZZZZ     -80.5871
 -----------------------------------------------------------------
 Calculating analytic gradient of the CIS energy
 CIS relaxed dipole moment
            1
    1  -0.2932216
    2  -1.4343061
    3   0.0202301
	Magnitude:	 1.464 au	 3.721 Debye
 CIS 1 State Energy is -460.4769085338
 Gradient of the state energy (including CIS Excitation Energy)
            1           2           3           4           5           6
    1  -0.0182392   0.0172081  -0.0283137   0.0352942  -0.0047652  -0.0049553
    2   0.0023720  -0.0351867   0.0387441   0.0307224  -0.0287368  -0.0076497
    3   0.0003061   0.0001061   0.0000517  -0.0009169   0.0004183   0.0001722
            7           8           9          10          11          12
    1  -0.0194897   0.0337047  -0.0371076   0.0223696   0.0021453   0.0016363
    2   0.0327018  -0.0369280  -0.0246847   0.0226650   0.0019692   0.0034053
    3  -0.0000546  -0.0001465   0.0008878  -0.0006249  -0.0000859  -0.0000806
           13          14          15          16          17          18
    1  -0.0011241   0.0011051  -0.0001057   0.0004253   0.0012798  -0.0005053
    2   0.0003817   0.0001654  -0.0000581   0.0005908  -0.0001741  -0.0002777
    3   0.0000087  -0.0000203   0.0000030  -0.0000085  -0.0000184   0.0000039
           19
    1  -0.0005624
    2  -0.0000218
    3  -0.0000011
 Gradient time:  CPU 282.62 s  wall 15.34 s
 ----------------------------------------------------------------
             Standard Nuclear Orientation (Angstroms)
    I     Atom           X                Y                Z
 ----------------------------------------------------------------
    1      O       1.0447360000     0.1387600000     0.0616010000
    2      C       2.4033220000     0.0468270000     0.0402770000
    3      C       3.0713040000    -1.1584480000     0.0430920000
    4      C       4.4836180000    -1.1864030000     0.0198660000
    5      C       5.2102110000    -0.0207830000    -0.0053240000
    6      C       4.5455870000     1.2334930000    -0.0084310000
    7      C       5.2574690000     2.4605440000    -0.0340060000
    8      C       4.5938780000     3.6653710000    -0.0366240000
    9      C       3.1808580000     3.7013260000    -0.0135510000
   10      C       2.4572380000     2.5311560000     0.0114880000
   11      C       3.1191430000     1.2783390000     0.0146750000
   12      H       0.6722780000    -0.7490770000     0.0759860000
   13      H       2.5073800000    -2.0937120000     0.0635900000
   14      H       4.9930620000    -2.1506670000     0.0223380000
   15      H       6.3001580000    -0.0448640000    -0.0231990000
   16      H       6.3482200000     2.4310850000    -0.0518480000
   17      H       5.1583340000     4.5985490000    -0.0567740000
   18      H       2.6645220000     4.6618610000    -0.0158450000
   19      H       1.3686910000     2.5512950000     0.0291970000
 ----------------------------------------------------------------
 Nuclear Repulsion Energy =         551.80708326 hartrees
 There are       38 alpha and       38 beta electrons
 Requested basis set is aug-cc-pVDZ
 There are 139 shells and 325 basis functions
 A cutoff of  1.0D-12 yielded   9464 shell pairs
 There are     52034 function pairs (     59418 Cartesian)
 Smallest overlap matrix eigenvalue = 8.37E-07
 Linear dependence detected in AO basis
 Tighter screening thresholds may be required for diffuse basis sets
 Use S2THRESH > 14 and THRESH = 14 in case of SCF convergence issues
 Number of orthogonalized atomic orbitals = 324
 Maximum deviation from orthogonality = 1.949E-10
 Guess MOs from SCF MO coefficient file

 -----------------------------------------------------------------------
  General SCF calculation program by
  Eric Jon Sundstrom, Paul Horn, Yuezhi Mao, Dmitri Zuev, Alec White,
  David Stuck, Shaama M.S., Shane Yost, Joonho Lee, David Small,
  Daniel Levine, Susi Lehtola, Hugh Burton, Evgeny Epifanovsky,
  Bang C. Huynh
 -----------------------------------------------------------------------
 Exchange:     0.2500 Hartree-Fock + 0.7500 PBE
 Correlation:  1.0000 PBE
 Using SG-1 standard quadrature grid
 using 20 threads for integral computing
 -------------------------------------------------------
 OpenMP Integral computing Module                
 Release: version 1.0, May 2013, Q-Chem Inc. Pittsburgh 
 -------------------------------------------------------
 A restricted SCF calculation will be
 performed using DIIS
 SCF converges when DIIS error is below 1.0e-09
 ---------------------------------------
  Cycle       Energy         DIIS error
 ---------------------------------------
    1    -460.6373401313      1.22e-05  
    2    -460.6373416283      3.03e-06  
    3    -460.6373416141      3.33e-06  
    4    -460.6373417238      7.66e-07  
    5    -460.6373417295      2.41e-07  
    6    -460.6373417303      6.23e-08  
    7    -460.6373417304      2.42e-08  
    8    -460.6373417304      6.56e-09  
    9    -460.6373417304      2.66e-09  
   10    -460.6373417304      6.97e-10  Convergence criterion met
 ---------------------------------------
 SCF time:   CPU 499.97s  wall 30.00s 
 SCF   energy in the final basis set =     -460.6373417304
 Total energy in the final basis set =     -460.6373417304

 Direct TDDFT/TDA calculation will be performed
 Exchange:     0.2500 Hartree-Fock + 0.7500 PBE
 Correlation:  1.0000 PBE
 Using SG-1 standard quadrature grid
 Singlet excitation energies requested
 CIS energy converged when residual is below 10e- 6
 ---------------------------------------------------
 Iter    Rts Conv    Rts Left    Ttl Dev     Max Dev
 ---------------------------------------------------
   1         0           5      0.003030    0.001255
   2         0           5      0.001194    0.000644
   3         0           5      0.000518    0.000387
   4         0           5      0.000151    0.000101
   5         0           5      0.000043    0.000029
   6         2           3      0.000018    0.000013
   7         4           1      0.000006    0.000004
   8         4           1      0.000003    0.000002
   9         5           0      0.000002    0.000001    Roots Converged
 ---------------------------------------------------

 ---------------------------------------------------
         TDDFT/TDA Excitation Energies              
 ---------------------------------------------------

 Excited state   1: excitation energy (eV) =    4.3649
 Total energy for state  1:                  -460.47693612 au
    Multiplicity: Singlet
    Trans. Mom.: -0.8653 X   0.0489 Y   0.0136 Z
    Strength   :     0.0803366542
    D(   37) --> V(    2) amplitude =  0.2255
    D(   38) --> V(    1) amplitude =  0.9248

 Excited state   2: excitation energy (eV) =    4.4362
 Total energy for state  2:                  -460.47431397 au
    Multiplicity: Singlet
    Trans. Mom.: -0.1993 X  -0.4611 Y   0.0085 Z
    Strength   :     0.0274298663
    D(   37) --> V(    1) amplitude = -0.5910
    D(   38) --> V(    2) amplitude =  0.7751

 Excited state   3: excitation energy (eV) =    4.8871
 Total energy for state  3:                  -460.45774252 au
    Multiplicity: Singlet
    Trans. Mom.: -0.0002 X   0.0006 Y  -0.0355 Z
    Strength   :     0.0001506033
    D(   38) --> V(    3) amplitude =  0.9879

 Excited state   4: excitation energy (eV) =    5.3403
 Total energy for state  4:                  -460.44108785 au
    Multiplicity: Singlet
    Trans. Mom.: -0.0014 X  -0.0011 Y  -0.0703 Z
    Strength   :     0.0006478919
    D(   38) --> V(    4) amplitude =  0.9303
    D(   38) --> V(    5) amplitude =  0.3331

 Excited state   5: excitation energy (eV) =    5.4593
 Total energy for state  5:                  -460.43671755 au
    Multiplicity: Singlet
    Trans. Mom.:  0.0003 X  -0.0001 Y   0.0152 Z
    Strength   :     0.0000310471
    D(   38) --> V(    4) amplitude = -0.3279
    D(   38) --> V(    5) amplitude =  0.9310

 ---------------------------------------------------
 Calculating Relaxed Density
 ---------------------------------------------------
 Iter    Rts Conv    Rts Left    Ttl Dev     Max Dev
 ---------------------------------------------------
   1         0           5      0.001607    0.000423
   2         0           5      0.000590    0.000145
   3         0           5      0.000117    0.000030
   4         0           5      0.000019    0.000005
   5         1           4      0.000006    0.000002
   6         5           0      0.000000    0.000000    Roots Converged
 ---------------------------------------------------
  SETman timing summary (seconds)
  CPU time              1738.20s
  System time              0.00s
  Wall time               96.86s

 --------------------------------------------------------------

                    Orbital Energies (a.u.)
 --------------------------------------------------------------

 Alpha MOs
 -- Occupied --
-19.2653 -10.3044 -10.2498 -10.2472 -10.2438 -10.2407 -10.2398 -10.2396
-10.2391 -10.2385 -10.2338  -1.1065  -0.9037  -0.8506  -0.7973  -0.7713
 -0.7426  -0.6588  -0.6429  -0.6227  -0.5639  -0.5369  -0.5209  -0.4959
 -0.4681  -0.4443  -0.4410  -0.4406  -0.4214  -0.4055  -0.3876  -0.3864
 -0.3525  -0.3468  -0.3389  -0.2842  -0.2614  -0.2196
 -- Virtual --
 -0.0403  -0.0180  -0.0072   0.0062   0.0097   0.0234   0.0260   0.0280
  0.0459   0.0489   0.0557   0.0575   0.0741   0.0760   0.0797   0.0798
  0.0869   0.0875   0.0929   0.0990   0.1010   0.1051   0.1115   0.1140
  0.1202   0.1236   0.1241   0.1249   0.1411   0.1432   0.1462   0.1482
  0.1509   0.1583   0.1603   0.1615   0.1818   0.1945   0.1964   0.2044
  0.2050   0.2124   0.2168   0.2185   0.2326   0.2370   0.2388   0.2406
  0.2419   0.2462   0.2475   0.2542   0.2599   0.2625   0.2712   0.2716
  0.2747   0.2807   0.2851   0.2869   0.2872   0.2950   0.3028   0.3037
  0.3144   0.3254   0.3314   0.3333   0.3446   0.3459   0.3468   0.3604
  0.3764   0.3833   0.3859   0.3870   0.3988   0.3998   0.4137   0.4180
  0.4399   0.4428   0.4474   0.4474   0.4554   0.4581   0.4618   0.4842
  0.4984   0.5057   0.5108   0.5132   0.5210   0.5242   0.5399   0.5489
  0.5533   0.5607   0.5668   0.5716   0.5725   0.5748   0.5823   0.5870
  0.5874   0.5904   0.5972   0.5990   0.6102   0.6119   0.6160   0.6297
  0.6307   0.6336   0.6452   0.6481   0.6605   0.6615   0.6687   0.6743
  0.6914   0.7093   0.7116   0.7299   0.7328   0.7463   0.7507   0.7587
  0.7629   0.7642   0.7674   0.7769   0.7787   0.7810   0.7884   0.7969
  0.8049   0.8096   0.8301   0.8476   0.8495   0.8553   0.8621   0.8714
  0.8968   0.9017   0.9100   0.9126   0.9261   0.9486   0.9517   0.9998
  1.0002   1.0079   1.0116   1.0524   1.0778   1.0855   1.1026   1.1107
  1.1234   1.1340   1.1763   1.2184   1.2376   1.2420   1.2675   1.2733
  1.2857   1.2911   1.3000   1.3052   1.3223   1.3369   1.3371   1.3548
  1.3637   1.4014   1.4066   1.4090   1.4182   1.4253   1.4381   1.4422
  1.4551   1.4607   1.4719   1.4848   1.4959   1.5183   1.5261   1.5299
  1.5336   1.5474   1.5475   1.5674   1.5772   1.5980   1.6037   1.6152
  1.6240   1.6263   1.6527   1.6751   1.6881   1.6952   1.7114   1.7178
  1.7265   1.7495   1.7537   1.7690   1.7720   1.7854   1.8094   1.8164
  1.8237   1.8420   1.8565   1.8631   1.8661   1.8801   1.8945   1.9033
  1.9073   1.9184   1.9265   1.9597   1.9651   1.9964   2.0135   2.0194
  2.0431   2.0484   2.0534   2.0539   2.0779   2.0809   2.1020   2.1135
  2.1226   2.1396   2.1485   2.1685   2.1864   2.2125   2.2357   2.2511
  2.2512   2.2972   2.3200   2.3403   2.3909   2.4194   2.4335   2.4925
  2.5102   2.5403   2.5459   2.6132   2.6502   2.6672   2.7128   2.7475
  2.7668   2.7871   2.8292   2.8512   2.8826   2.9408   3.0252   3.0428
  3.1045   3.1291   3.2418   3.3727   3.3908   3.4031   3.4591   3.5003
  3.5154   3.6192   3.6766   4.0160   4.2436   4.5700
 --------------------------------------------------------------

          Ground-State Mulliken Net Atomic Charges

     Atom                 Charge (a.u.)
  ----------------------------------------
      1 O                    -0.811106
      2 C                    -0.059408
      3 C                     0.803230
      4 C                     0.194893
      5 C                     0.350821
      6 C                     1.513667
      7 C                     0.455307
      8 C                     0.300997
      9 C                     0.138994
     10 C                     0.537576
     11 C                     1.347750
     12 H                     0.255262
     13 H                    -0.796972
     14 H                    -0.609460
     15 H                    -0.783339
     16 H                    -0.780238
     17 H                    -0.615259
     18 H                    -0.613161
     19 H                    -0.829554
  ----------------------------------------
  Sum of atomic charges =     0.000000

 -----------------------------------------------------------------
                    Cartesian Multipole Moments
 -----------------------------------------------------------------
    Charge (ESU x 10^10)
                 0.0000
    Dipole Moment (Debye)
         X      -0.2726      Y      -1.1762      Z       0.0151
       Tot       1.2075
    Quadrupole Moments (Debye-Ang)
        XX     -58.7171     XY       0.0337     YY     -55.3305
        XZ      -0.2030     YZ      -0.2537     ZZ     -69.5047
    Octopole Moments (Debye-Ang^2)
       XXX    -622.2433    XXY     -63.0852    XYY    -201.1698
       YYY    -193.9019    XXZ      -2.0689    XYZ      -0.8628
       YYZ      -0.7682    XZZ    -251.6131    YZZ     -80.6212
       ZZZ      -1.6052
    Hexadecapole Moments (Debye-Ang^3)
      XXXX   -5151.0306   XXXY    -744.8074   XXYY   -1109.4104
      XYYY    -746.6173   YYYY   -1578.8737   XXXZ      -9.6616
      XXYZ      -2.6280   XYYZ      -2.1868   YYYZ       2.8333
      XXZZ   -1067.4320   XYZZ    -310.9448   YYZZ    -344.3792
      XZZZ       1.2614   YZZZ       6.6627   ZZZZ     -80.5905
 -----------------------------------------------------------------
 Calculating analytic gradient of the CIS energy
 CIS relaxed dipole moment
            1
    1  -0.2963424
    2  -1.4383854
    3   0.0203168
	Magnitude:	 1.469 au	 3.733 Debye
 CIS 1 State Energy is -460.4769361219
 Gradient of the state energy (including CIS Excitation Energy)
            1           2           3           4           5           6
    1  -0.0170917   0.0166618  -0.0283459   0.0352957  -0.0047472  -0.0048711
    2   0.0037627  -0.0353263   0.0387482   0.0307462  -0.0287291  -0.0076481
    3   0.0002762   0.0001144   0.0000528  -0.0009170   0.0004179   0.0001710
            7           8           9          10          11          12
    1  -0.0195391   0.0337522  -0.0371506   0.0224027   0.0019294   0.0011875
    2   0.0326758  -0.0369019  -0.0247201   0.0227000   0.0019149   0.0021747
    3  -0.0000535  -0.0001474   0.0008888  -0.0006260  -0.0000815  -0.0000627
           13          14          15          16          17          18
    1  -0.0011150   0.0011080  -0.0001062   0.0004249   0.0012785  -0.0005071
    2   0.0003876   0.0001652  -0.0000562   0.0005893  -0.0001760  -0.0002783
    3   0.0000083  -0.0000204   0.0000029  -0.0000085  -0.0000184   0.0000039
           19
    1  -0.0005669
    2  -0.0000286
    3  -0.0000009
 Gradient time:  CPU 282.89 s  wall 15.35 s
 ----------------------------------------------------------------
             Standard Nuclear Orientation (Angstroms)
    I     Atom           X                Y                Z
 ----------------------------------------------------------------
    1      O       1.0447360000     0.1367600000     0.0616010000
    2      C       2.4033220000     0.0468270000     0.0402770000
    3      C       3.0713040000    -1.1584480000     0.0430920000
    4      C       4.4836180000    -1.1864030000     0.0198660000
    5      C       5.2102110000    -0.0207830000    -0.0053240000
    6      C       4.5455870000     1.2334930000    -0.0084310000
    7      C       5.2574690000     2.4605440000    -0.0340060000
    8      C       4.5938780000     3.6653710000    -0.0366240000
    9      C       3.1808580000     3.7013260000    -0.0135510000
   10      C       2.4572380000     2.5311560000     0.0114880000
   11      C       3.1191430000     1.2783390000     0.0146750000
   12      H       0.6722780000    -0.7490770000     0.0759860000
   13      H       2.5073800000    -2.0937120000     0.0635900000
   14      H       4.9930620000    -2.1506670000     0.0223380000
   15      H       6.3001580000    -0.0448640000    -0.0231990000
   16      H       6.3482200000     2.4310850000    -0.0518480000
   17      H       5.1583340000     4.5985490000    -0.0567740000
   18      H       2.6645220000     4.6618610000    -0.0158450000
   19      H       1.3686910000     2.5512950000     0.0291970000
 ----------------------------------------------------------------
 Nuclear Repulsion Energy =         551.80654617 hartrees
 There are       38 alpha and       38 beta electrons
 Requested basis set is aug-cc-pVDZ
 There are 139 shells and 325 basis functions
 A cutoff of  1.0D-12 yielded   9464 shell pairs
 There are     52034 function pairs (     59418 Cartesian)
 Smallest overlap matrix eigenvalue = 8.37E-07
 Linear dependence detected in AO basis
 Tighter screening thresholds may be required for diffuse basis sets
 Use S2THRESH > 14 and THRESH = 14 in case of SCF convergence issues
 Number of orthogonalized atomic orbitals = 324
 Maximum deviation from orthogonality = 2.574E-10
 Guess MOs from SCF MO coefficient file

 -----------------------------------------------------------------------
  General SCF calculation program by
  Eric Jon Sundstrom, Paul Horn, Yuezhi Mao, Dmitri Zuev, Alec White,
  David Stuck, Shaama M.S., Shane Yost, Joonho Lee, David Small,
  Daniel Levine, Susi Lehtola, Hugh Burton, Evgeny Epifanovsky,
  Bang C. Huynh
 -----------------------------------------------------------------------
 Exchange:     0.2500 Hartree-Fock + 0.7500 PBE
 Correlation:  1.0000 PBE
 Using SG-1 standard quadrature grid
 using 20 threads for integral computing
 -------------------------------------------------------
 OpenMP Integral computing Module                
 Release: version 1.0, May 2013, Q-Chem Inc. Pittsburgh 
 -------------------------------------------------------
 A restricted SCF calculation will be
 performed using DIIS
 SCF converges when DIIS error is below 1.0e-09
 ---------------------------------------
  Cycle       Energy         DIIS error
 ---------------------------------------
    1    -460.6373391051      1.61e-05  
    2    -460.6373416519      3.35e-06  
    3    -460.6373415819      4.16e-06  
    4    -460.6373417670      8.86e-07  
    5    -460.6373417755      2.79e-07  
    6    -460.6373417766      7.62e-08  
    7    -460.6373417767      2.71e-08  
    8    -460.6373417767      7.87e-09  
    9    -460.6373417767      2.01e-09  
   10    -460.6373417767      6.04e-10  Convergence criterion met
 ---------------------------------------
 SCF time:   CPU 499.61s  wall 30.00s 
 SCF   energy in the final basis set =     -460.6373417767
 Total energy in the final basis set =     -460.6373417767

 Direct TDDFT/TDA calculation will be performed
 Exchange:     0.2500 Hartree-Fock + 0.7500 PBE
 Correlation:  1.0000 PBE
 Using SG-1 standard quadrature grid
 Singlet excitation energies requested
 CIS energy converged when residual is below 10e- 6
 ---------------------------------------------------
 Iter    Rts Conv    Rts Left    Ttl Dev     Max Dev
 ---------------------------------------------------
   1         0           5      0.003030    0.001255
   2         0           5      0.001195    0.000645
   3         0           5      0.000518    0.000387
   4         0           5      0.000151    0.000101
   5         0           5      0.000044    0.000029
   6         2           3      0.000018    0.000013
   7         4           1      0.000006    0.000004
   8         4           1      0.000003    0.000002
   9         5           0      0.000002    0.000001    Roots Converged
 ---------------------------------------------------

 ---------------------------------------------------
         TDDFT/TDA Excitation Energies              
 ---------------------------------------------------

 Excited state   1: excitation energy (eV) =    4.3646
 Total energy for state  1:                  -460.47694615 au
    Multiplicity: Singlet
    Trans. Mom.: -0.8654 X   0.0495 Y   0.0136 Z
    Strength   :     0.0803710413
    D(   37) --> V(    2) amplitude =  0.2255
    D(   38) --> V(    1) amplitude =  0.9250

 Excited state   2: excitation energy (eV) =    4.4360
 Total energy for state  2:                  -460.47432144 au
    Multiplicity: Singlet
    Trans. Mom.: -0.1985 X  -0.4613 Y   0.0085 Z
    Strength   :     0.0274128482
    D(   37) --> V(    1) amplitude = -0.5911
    D(   38) --> V(    2) amplitude =  0.7753

 Excited state   3: excitation energy (eV) =    4.8897
 Total energy for state  3:                  -460.45764977 au
    Multiplicity: Singlet
    Trans. Mom.: -0.0002 X   0.0005 Y  -0.0358 Z
    Strength   :     0.0001536703
    D(   38) --> V(    3) amplitude =  0.9880

 Excited state   4: excitation energy (eV) =    5.3408
 Total energy for state  4:                  -460.44106978 au
    Multiplicity: Singlet
    Trans. Mom.: -0.0014 X  -0.0011 Y  -0.0700 Z
    Strength   :     0.0006419229
    D(   38) --> V(    4) amplitude =  0.9300
    D(   38) --> V(    5) amplitude =  0.3338

 Excited state   5: excitation energy (eV) =    5.4591
 Total energy for state  5:                  -460.43672342 au
    Multiplicity: Singlet
    Trans. Mom.:  0.0003 X  -0.0001 Y   0.0151 Z
    Strength   :     0.0000305409
    D(   38) --> V(    4) amplitude = -0.3287
    D(   38) --> V(    5) amplitude =  0.9308

 ---------------------------------------------------
 Calculating Relaxed Density
 ---------------------------------------------------
 Iter    Rts Conv    Rts Left    Ttl Dev     Max Dev
 ---------------------------------------------------
   1         0           5      0.001606    0.000423
   2         0           5      0.000590    0.000145
   3         0           5      0.000117    0.000030
   4         0           5      0.000019    0.000005
   5         1           4      0.000006    0.000002
   6         5           0      0.000000    0.000000    Roots Converged
 ---------------------------------------------------
  SETman timing summary (seconds)
  CPU time              1738.76s
  System time              0.00s
  Wall time               96.92s

 --------------------------------------------------------------

                    Orbital Energies (a.u.)
 --------------------------------------------------------------

 Alpha MOs
 -- Occupied --
-19.2651 -10.3044 -10.2498 -10.2473 -10.2437 -10.2407 -10.2398 -10.2396
-10.2391 -10.2385 -10.2338  -1.1068  -0.9038  -0.8506  -0.7974  -0.7713
 -0.7427  -0.6589  -0.6429  -0.6229  -0.5641  -0.5369  -0.5209  -0.4960
 -0.4681  -0.4443  -0.4410  -0.4405  -0.4213  -0.4055  -0.3875  -0.3865
 -0.3525  -0.3468  -0.3389  -0.2842  -0.2614  -0.2196
 -- Virtual --
 -0.0403  -0.0180  -0.0071   0.0062   0.0097   0.0235   0.0260   0.0280
  0.0460   0.0489   0.0557   0.0575   0.0741   0.0761   0.0797   0.0799
  0.0870   0.0874   0.0929   0.0990   0.1010   0.1051   0.1115   0.1140
  0.1202   0.1236   0.1241   0.1249   0.1411   0.1432   0.1462   0.1482
  0.1509   0.1583   0.1603   0.1615   0.1819   0.1946   0.1964   0.2044
  0.2050   0.2124   0.2169   0.2185   0.2327   0.2370   0.2388   0.2406
  0.2418   0.2462   0.2475   0.2542   0.2599   0.2625   0.2713   0.2716
  0.2747   0.2807   0.2851   0.2870   0.2872   0.2951   0.3028   0.3037
  0.3144   0.3254   0.3314   0.3334   0.3446   0.3459   0.3468   0.3604
  0.3765   0.3833   0.3860   0.3870   0.3990   0.3998   0.4137   0.4180
  0.4399   0.4427   0.4474   0.4475   0.4554   0.4582   0.4618   0.4842
  0.4984   0.5057   0.5108   0.5132   0.5210   0.5242   0.5399   0.5489
  0.5533   0.5607   0.5669   0.5716   0.5725   0.5748   0.5823   0.5871
  0.5874   0.5904   0.5972   0.5990   0.6102   0.6119   0.6161   0.6297
  0.6307   0.6336   0.6452   0.6482   0.6605   0.6616   0.6687   0.6743
  0.6915   0.7092   0.7116   0.7299   0.7328   0.7463   0.7507   0.7587
  0.7629   0.7642   0.7674   0.7769   0.7787   0.7810   0.7884   0.7969
  0.8049   0.8097   0.8301   0.8476   0.8494   0.8553   0.8621   0.8714
  0.8967   0.9016   0.9101   0.9125   0.9263   0.9486   0.9517   0.9999
  1.0002   1.0079   1.0116   1.0524   1.0774   1.0855   1.1026   1.1107
  1.1235   1.1340   1.1762   1.2186   1.2375   1.2420   1.2675   1.2733
  1.2857   1.2912   1.3000   1.3055   1.3223   1.3369   1.3371   1.3548
  1.3638   1.4014   1.4065   1.4090   1.4183   1.4253   1.4380   1.4423
  1.4551   1.4606   1.4719   1.4848   1.4960   1.5183   1.5261   1.5300
  1.5335   1.5474   1.5475   1.5674   1.5773   1.5980   1.6038   1.6151
  1.6240   1.6262   1.6528   1.6751   1.6882   1.6953   1.7114   1.7178
  1.7266   1.7496   1.7536   1.7689   1.7720   1.7855   1.8094   1.8164
  1.8236   1.8421   1.8566   1.8631   1.8662   1.8802   1.8945   1.9035
  1.9073   1.9185   1.9273   1.9599   1.9651   1.9967   2.0134   2.0196
  2.0431   2.0486   2.0534   2.0539   2.0780   2.0809   2.1020   2.1135
  2.1227   2.1396   2.1488   2.1685   2.1868   2.2127   2.2357   2.2511
  2.2516   2.2988   2.3202   2.3409   2.3909   2.4194   2.4336   2.4925
  2.5102   2.5403   2.5459   2.6136   2.6503   2.6672   2.7133   2.7475
  2.7670   2.7867   2.8296   2.8512   2.8827   2.9410   3.0253   3.0425
  3.1045   3.1286   3.2418   3.3727   3.3908   3.4033   3.4590   3.5003
  3.5153   3.6187   3.6769   4.0187   4.2436   4.5704
 --------------------------------------------------------------

          Ground-State Mulliken Net Atomic Charges

     Atom                 Charge (a.u.)
  ----------------------------------------
      1 O                    -0.808490
      2 C                    -0.058969
      3 C                     0.802275
      4 C                     0.194466
      5 C                     0.349868
      6 C                     1.512905
      7 C                     0.455655
      8 C                     0.300831
      9 C                     0.139529
     10 C                     0.538852
     11 C                     1.348016
     12 H                     0.253134
     13 H                    -0.797126
     14 H                    -0.609466
     15 H                    -0.783351
     16 H                    -0.780211
     17 H                    -0.615288
     18 H                    -0.613161
     19 H                    -0.829469
  ----------------------------------------
  Sum of atomic charges =     0.000000

 -----------------------------------------------------------------
                    Cartesian Multipole Moments
 -----------------------------------------------------------------
    Charge (ESU x 10^10)
                 0.0000
    Dipole Moment (Debye)
         X      -0.2723      Y      -1.1744      Z       0.0151
       Tot       1.2057
    Quadrupole Moments (Debye-Ang)
        XX     -58.7137     XY       0.0382     YY     -55.3272
        XZ      -0.2030     YZ      -0.2537     ZZ     -69.5025
    Octopole Moments (Debye-Ang^2)
       XXX    -622.2313    XXY     -63.0589    XYY    -201.1639
       YYY    -193.8696    XXZ      -2.0690    XYZ      -0.8627
       YYZ      -0.7681    XZZ    -251.6106    YZZ     -80.6116
       ZZZ      -1.6048
    Hexadecapole Moments (Debye-Ang^3)
      XXXX   -5150.9739   XXXY    -744.6886   XXYY   -1109.3820
      XYYY    -746.5607   YYYY   -1578.8329   XXXZ      -9.6626
      XXYZ      -2.6278   XYYZ      -2.1871   YYYZ       2.8347
      XXZZ   -1067.4272   XYZZ    -310.9348   YYZZ    -344.3738
      XZZZ       1.2618   YZZZ       6.6644   ZZZZ     -80.5873
 -----------------------------------------------------------------
 Calculating analytic gradient of the CIS energy
 CIS relaxed dipole moment
            1
    1  -0.2963045
    2  -1.4382756
    3   0.0203223
	Magnitude:	 1.469 au	 3.733 Debye
 CIS 1 State Energy is -460.4769461540
 Gradient of the state energy (including CIS Excitation Energy)
            1           2           3           4           5           6
    1  -0.0176600   0.0166877  -0.0285210   0.0352998  -0.0047442  -0.0048396
    2   0.0015453  -0.0349025   0.0387446   0.0307740  -0.0287128  -0.0076226
    3   0.0003054   0.0001112   0.0000552  -0.0009176   0.0004177   0.0001700
            7           8           9          10          11          12
    1  -0.0195384   0.0337804  -0.0371651   0.0224075   0.0020702   0.0017058
    2   0.0326784  -0.0369014  -0.0247419   0.0227120   0.0018894   0.0039380
    3  -0.0000536  -0.0001480   0.0008893  -0.0006261  -0.0000838  -0.0000871
           13          14          15          16          17          18
    1  -0.0011166   0.0011030  -0.0001066   0.0004263   0.0012783  -0.0005085
    2   0.0003764   0.0001644  -0.0000574   0.0005913  -0.0001765  -0.0002783
    3   0.0000086  -0.0000202   0.0000030  -0.0000085  -0.0000184   0.0000040
           19
    1  -0.0005589
    2  -0.0000205
    3  -0.0000012
 Gradient time:  CPU 281.91 s  wall 15.35 s
 ----------------------------------------------------------------
             Standard Nuclear Orientation (Angstroms)
    I     Atom           X                Y                Z
 ----------------------------------------------------------------
    1      O       1.0447360000     0.1377600000     0.0626010000
    2      C       2.4033220000     0.0468270000     0.0402770000
    3      C       3.0713040000    -1.1584480000     0.0430920000
    4      C       4.4836180000    -1.1864030000     0.0198660000
    5      C       5.2102110000    -0.0207830000    -0.0053240000
    6      C       4.5455870000     1.2334930000    -0.0084310000
    7      C       5.2574690000     2.4605440000    -0.0340060000
    8      C       4.5938780000     3.6653710000    -0.0366240000
    9      C       3.1808580000     3.7013260000    -0.0135510000
   10      C       2.4572380000     2.5311560000     0.0114880000
   11      C       3.1191430000     1.2783390000     0.0146750000
   12      H       0.6722780000    -0.7490770000     0.0759860000
   13      H       2.5073800000    -2.0937120000     0.0635900000
   14      H       4.9930620000    -2.1506670000     0.0223380000
   15      H       6.3001580000    -0.0448640000    -0.0231990000
   16      H       6.3482200000     2.4310850000    -0.0518480000
   17      H       5.1583340000     4.5985490000    -0.0567740000
   18      H       2.6645220000     4.6618610000    -0.0158450000
   19      H       1.3686910000     2.5512950000     0.0291970000
 ----------------------------------------------------------------
 Nuclear Repulsion Energy =         551.80630546 hartrees
 There are       38 alpha and       38 beta electrons
 Requested basis set is aug-cc-pVDZ
 There are 139 shells and 325 basis functions
 A cutoff of  1.0D-12 yielded   9464 shell pairs
 There are     52034 function pairs (     59418 Cartesian)
 Smallest overlap matrix eigenvalue = 8.37E-07
 Linear dependence detected in AO basis
 Tighter screening thresholds may be required for diffuse basis sets
 Use S2THRESH > 14 and THRESH = 14 in case of SCF convergence issues
 Number of orthogonalized atomic orbitals = 324
 Maximum deviation from orthogonality = 2.584E-10
 Guess MOs from SCF MO coefficient file

 -----------------------------------------------------------------------
  General SCF calculation program by
  Eric Jon Sundstrom, Paul Horn, Yuezhi Mao, Dmitri Zuev, Alec White,
  David Stuck, Shaama M.S., Shane Yost, Joonho Lee, David Small,
[...]
 IR Active:          YES                    YES                    YES
 IR Intens:        9.328                 47.285                 14.299
 Raman Active:       YES                    YES                    YES
               X      Y      Z        X      Y      Z        X      Y      Z
 O          0.047 -0.013 -0.001    0.034 -0.019 -0.000    0.026 -0.020 -0.000
 C         -0.037  0.004  0.000   -0.023 -0.037  0.001   -0.026 -0.013  0.000
 C         -0.164 -0.035  0.003    0.007  0.071 -0.001   -0.009  0.040 -0.000
 C          0.063 -0.070 -0.000    0.018 -0.035  0.000    0.037  0.023 -0.001
 C          0.143  0.065 -0.003   -0.039  0.023  0.000   -0.019 -0.017  0.000
 C         -0.076 -0.002  0.001    0.070  0.034 -0.002    0.010 -0.007 -0.000
 C          0.076  0.007 -0.001   -0.051  0.039  0.000   -0.002 -0.013  0.000
 C          0.010  0.005 -0.000    0.026 -0.051  0.000   -0.013  0.022 -0.000
 C         -0.024  0.040 -0.000    0.001  0.013 -0.000    0.007  0.021 -0.000
 C          0.022 -0.036  0.000   -0.039 -0.016  0.001   -0.008 -0.008  0.000
 C         -0.037 -0.006  0.001   -0.017 -0.068  0.001   -0.001 -0.031  0.000
 H          0.002  0.008 -0.000   -0.237  0.100  0.002   -0.244  0.097  0.002
 H         -0.609  0.217  0.008   -0.273  0.242  0.002   -0.338  0.237  0.003
 H         -0.027 -0.132  0.002    0.060 -0.014 -0.001    0.475  0.255 -0.011
 H          0.167  0.632 -0.010   -0.040  0.021  0.000   -0.029 -0.418  0.006
 H          0.078 -0.103 -0.000   -0.042  0.539 -0.005   -0.008 -0.245  0.003
 H         -0.054  0.051  0.000    0.562 -0.379 -0.005   -0.252  0.167  0.002
 H         -0.059  0.023  0.001    0.055  0.045 -0.001    0.286  0.172 -0.007
 H          0.019 -0.163  0.002   -0.042  0.055  0.000   -0.013 -0.149  0.002
 TransDip  -0.064 -0.074  0.002   -0.012  0.220 -0.002   -0.110 -0.050  0.002

 Mode:                31                     32                     33
 Frequency:      1215.26                1218.08                1248.32
 Force Cnst:      1.3016                 1.2532                 1.6744
 Red. Mass:       1.4958                 1.4336                 1.8237
 IR Active:          YES                    YES                    YES
 IR Intens:      177.392                 45.626                 43.516
 Raman Active:       YES                    YES                    YES
               X      Y      Z        X      Y      Z        X      Y      Z
 O          0.004  0.044 -0.001    0.014  0.045 -0.001   -0.023  0.025  0.000
 C         -0.031 -0.001  0.000   -0.056  0.047 -0.000    0.026 -0.002 -0.000
 C          0.014  0.046 -0.001   -0.039 -0.034  0.001    0.016 -0.027 -0.000
 C          0.015 -0.046  0.000    0.018  0.035 -0.001    0.023 -0.035 -0.000
 C         -0.047  0.010  0.001    0.018 -0.024  0.000    0.084  0.015 -0.002
 C          0.044  0.026 -0.001   -0.061 -0.086  0.002   -0.073  0.202 -0.001
 C         -0.009  0.005  0.000    0.061  0.030 -0.001    0.000  0.035 -0.000
 C         -0.008 -0.006  0.000    0.014  0.015 -0.000   -0.024 -0.055  0.001
 C         -0.027  0.044 -0.000    0.014  0.024 -0.001   -0.005  0.017 -0.000
 C         -0.023  0.005  0.000   -0.010 -0.043  0.001    0.044 -0.047 -0.000
 C         -0.002 -0.167  0.002   -0.077 -0.025  0.002   -0.079 -0.002  0.001
 H          0.527 -0.183 -0.006    0.584 -0.204 -0.006    0.247 -0.093 -0.002
 H          0.124 -0.019 -0.002    0.056 -0.103  0.000   -0.119  0.049  0.002
 H         -0.159 -0.140  0.004    0.470  0.273 -0.011   -0.261 -0.192  0.007
 H         -0.042  0.236 -0.001    0.010 -0.227  0.003    0.081 -0.696  0.006
 H         -0.009 -0.061  0.001    0.076  0.388 -0.005   -0.020 -0.330  0.003
 H         -0.170  0.088  0.002    0.160 -0.064 -0.002    0.256 -0.227 -0.002
 H          0.585  0.378 -0.014   -0.164 -0.071  0.004   -0.002  0.014  0.000
 H         -0.033 -0.002  0.001   -0.011  0.020  0.000    0.045 -0.126  0.000
 TransDip   0.265  0.334 -0.008    0.150 -0.156 -0.000    0.207  0.042 -0.004

 Mode:                34                     35                     36
 Frequency:      1299.25                1326.24                1420.18
 Force Cnst:      2.6903                 1.4800                 2.4236
 Red. Mass:       2.7050                 1.4281                 2.0395
 IR Active:          YES                    YES                    YES
 IR Intens:      242.294                360.864                256.980
 Raman Active:       YES                    YES                    YES
               X      Y      Z        X      Y      Z        X      Y      Z
 O         -0.130  0.028  0.002   -0.033  0.006  0.000    0.018  0.021 -0.000
 C          0.265 -0.043 -0.004    0.019 -0.015 -0.000   -0.118 -0.079  0.003
 C          0.125 -0.028 -0.002    0.008 -0.012 -0.000   -0.003 -0.011  0.000
 C         -0.073  0.076  0.000   -0.022  0.027  0.000    0.096  0.018 -0.002
 C         -0.004  0.029 -0.000    0.015  0.021 -0.001   -0.039  0.089 -0.000
 C         -0.051 -0.107  0.002   -0.012 -0.043  0.001    0.007 -0.007 -0.000
 C          0.044 -0.016 -0.001    0.024  0.046 -0.001   -0.050 -0.054  0.001
 C          0.032  0.007 -0.001   -0.047  0.028  0.000    0.048 -0.037 -0.000
 C         -0.003  0.032 -0.000    0.011  0.028 -0.001    0.096  0.055 -0.002
 C          0.008 -0.003 -0.000   -0.071 -0.065  0.002   -0.091  0.056  0.001
 C         -0.091 -0.053  0.002    0.116 -0.051 -0.001    0.142 -0.022 -0.002
 H          0.082 -0.065  0.000    0.075 -0.046 -0.001    0.265 -0.093 -0.003
 H         -0.572  0.407  0.006   -0.190  0.100  0.002   -0.256  0.121  0.003
 H         -0.294 -0.028  0.005    0.047  0.071 -0.002   -0.331 -0.204  0.008
 H         -0.016 -0.057  0.002    0.015  0.006  0.000   -0.054 -0.337  0.005
 H          0.064  0.406 -0.005    0.011 -0.449  0.005   -0.054  0.199 -0.001
 H         -0.232  0.169  0.002    0.228 -0.127 -0.003   -0.343  0.196  0.004
 H          0.019  0.047 -0.001   -0.084 -0.022  0.002   -0.454 -0.233  0.010
 H          0.004 -0.065  0.001   -0.058  0.787 -0.008   -0.103 -0.101  0.003
 TransDip   0.327  0.376 -0.009   -0.067 -0.605  0.008   -0.180 -0.481  0.009

 Mode:                37                     38                     39
 Frequency:      1467.76                1488.84                1513.17
 Force Cnst:      2.7587                 3.9914                 7.2290
 Red. Mass:       2.1734                 3.0562                 5.3586
 IR Active:          YES                    YES                    YES
 IR Intens:        5.505                 40.346                217.309
 Raman Active:       YES                    YES                    YES
               X      Y      Z        X      Y      Z        X      Y      Z
 O          0.002  0.031 -0.000   -0.037 -0.016  0.001   -0.016  0.022 -0.000
 C         -0.026 -0.075  0.001    0.124  0.027 -0.002   -0.044 -0.126  0.002
 C          0.088  0.010 -0.002   -0.049  0.100 -0.000    0.055  0.036 -0.001
 C         -0.115 -0.016  0.002   -0.114 -0.086  0.003    0.008  0.097 -0.001
 C          0.001 -0.022  0.000    0.095 -0.072 -0.001    0.014 -0.196  0.002
 C          0.150 -0.007 -0.002   -0.118  0.169  0.000   -0.268 -0.001  0.005
 C         -0.022  0.081 -0.001   -0.037  0.004  0.001    0.047  0.162 -0.003
 C         -0.091 -0.034  0.002    0.086 -0.114 -0.000   -0.020 -0.029  0.001
 C          0.149  0.030 -0.003    0.072  0.112 -0.002   -0.105 -0.203  0.004
 C         -0.027  0.051 -0.000   -0.079 -0.003  0.001    0.052  0.332 -0.005
 C         -0.104  0.000  0.002    0.080 -0.162  0.000    0.231 -0.069 -0.003
 H          0.248 -0.079 -0.003   -0.191  0.053  0.002    0.193 -0.079 -0.002
 H         -0.137  0.149  0.001    0.343 -0.111 -0.005   -0.225  0.214  0.001
 H          0.193  0.155 -0.005    0.457  0.205 -0.010    0.053  0.134 -0.002
 H          0.014  0.350 -0.004    0.119  0.164 -0.004    0.015  0.187 -0.002
 H         -0.039 -0.491  0.006   -0.048  0.185 -0.001    0.039 -0.066 -0.000
 H          0.038 -0.128  0.001   -0.366  0.151  0.005    0.330 -0.256 -0.003
 H         -0.329 -0.237  0.008   -0.371 -0.112  0.007    0.163 -0.084 -0.002
 H         -0.042 -0.419  0.006   -0.094  0.020  0.001    0.055 -0.438  0.003
 TransDip   0.049  0.057 -0.001    0.189 -0.076 -0.002   -0.051 -0.469  0.006

 Mode:                40                     41                     42
 Frequency:      1559.95                1562.67                1613.55
 Force Cnst:      5.7216                10.0121                10.3088
 Red. Mass:       3.9906                 6.9589                 6.7204
 IR Active:          YES                    YES                    YES
 IR Intens:        6.643                 36.107                 53.730
 Raman Active:       YES                    YES                    YES
               X      Y      Z        X      Y      Z        X      Y      Z
 O         -0.005 -0.040  0.001    0.043  0.004 -0.001    0.048 -0.046 -0.000
 C          0.119  0.187 -0.004   -0.179  0.056  0.003   -0.181  0.427 -0.001
 C         -0.121  0.001  0.002    0.218 -0.103 -0.003    0.274 -0.306 -0.001
 C          0.079 -0.070 -0.001   -0.266 -0.175  0.006   -0.083  0.066  0.001
 C         -0.031  0.209 -0.002    0.107  0.236 -0.004    0.021 -0.077  0.000
 C          0.003 -0.203  0.002    0.013 -0.105  0.001   -0.034  0.126 -0.001
 C          0.037  0.176 -0.003   -0.115  0.210 -0.000    0.048 -0.137  0.001
 C         -0.053 -0.044  0.001    0.307 -0.202 -0.003   -0.089  0.092  0.000
 C          0.054 -0.031 -0.001   -0.238 -0.060  0.005    0.075  0.010 -0.001
 C         -0.025  0.162 -0.001    0.072  0.017 -0.002   -0.057  0.038  0.000
 C         -0.035 -0.198  0.003    0.025  0.083 -0.001    0.036 -0.214  0.002
 H         -0.335  0.115  0.004    0.078 -0.013  0.001   -0.366  0.143  0.003
 H          0.287 -0.245 -0.002   -0.173  0.110  0.002   -0.412  0.063  0.007
 H         -0.113 -0.193  0.004    0.266  0.094 -0.005   -0.179  0.028  0.002
 H         -0.047 -0.399  0.006    0.114 -0.190 -0.002    0.026  0.196 -0.002
 H          0.027 -0.305  0.004   -0.143 -0.102  0.003    0.062  0.191 -0.004
 H          0.099 -0.152 -0.000   -0.351  0.188  0.004    0.106 -0.011 -0.002
 H         -0.114 -0.135  0.003    0.086  0.116 -0.003   -0.036 -0.048  0.001
 H         -0.037 -0.301  0.004    0.086  0.253 -0.004   -0.076 -0.144  0.003
 TransDip   0.068  0.046 -0.002   -0.188 -0.039  0.004   -0.214 -0.097  0.005

 Mode:                43                     44                     45
 Frequency:      1644.04                3180.22                3188.19
 Force Cnst:      9.6825                 6.4298                 6.5157
 Red. Mass:       6.0801                 1.0790                 1.0880
 IR Active:          YES                    YES                    YES
 IR Intens:       62.902                135.631                  4.853
 Raman Active:       YES                    YES                    YES
               X      Y      Z        X      Y      Z        X      Y      Z
 O         -0.012  0.017 -0.000    0.001 -0.001 -0.000    0.000 -0.000  0.000
 C         -0.011 -0.121  0.002   -0.004  0.002  0.000   -0.004  0.002  0.000
 C          0.046  0.094 -0.002   -0.018 -0.036  0.001   -0.032 -0.058  0.001
 C         -0.227 -0.244  0.006   -0.010  0.017 -0.000   -0.009  0.020 -0.000
 C          0.128  0.292 -0.005    0.010 -0.000 -0.000    0.006 -0.000 -0.000
 C         -0.055  0.002  0.001   -0.005 -0.001  0.000   -0.000 -0.002  0.000
 C          0.095 -0.292  0.002   -0.046  0.003  0.001    0.043 -0.000 -0.001
 C         -0.193  0.238  0.001    0.020  0.036 -0.001   -0.013 -0.019  0.000
 C          0.025 -0.094  0.001    0.013 -0.016 -0.000   -0.002  0.006 -0.000
 C         -0.004  0.116 -0.001   -0.001 -0.004  0.000    0.001 -0.001 -0.000
 C          0.092  0.000 -0.002    0.003  0.004 -0.000    0.000  0.001 -0.000
 H          0.118 -0.044 -0.002    0.004  0.006 -0.000    0.007  0.004 -0.000
 H          0.173  0.033 -0.003    0.245  0.418 -0.009    0.386  0.657 -0.014
 H          0.351  0.029 -0.006    0.117 -0.229  0.001    0.124 -0.240  0.001
 H          0.145 -0.281  0.001   -0.126 -0.000  0.002   -0.078  0.003  0.001
 H          0.133  0.298 -0.006    0.565 -0.014 -0.009   -0.500  0.013  0.008
 H          0.328 -0.047 -0.005   -0.275 -0.459  0.010    0.144  0.237 -0.005
 H          0.180 -0.023 -0.003   -0.123  0.236 -0.001    0.033 -0.063  0.000
 H         -0.001 -0.136  0.001    0.001 -0.000 -0.000   -0.015  0.000  0.000
 TransDip   0.047 -0.250  0.002    0.022  0.372 -0.004    0.002 -0.071  0.001

 Mode:                46                     47                     48
 Frequency:      3198.97                3204.39                3213.49
 Force Cnst:      6.5640                 6.5821                 6.6479
 Red. Mass:       1.0887                 1.0880                 1.0927
 IR Active:          YES                    YES                    YES
 IR Intens:       10.233                 24.539                 65.415
 Raman Active:       YES                    YES                    YES
               X      Y      Z        X      Y      Z        X      Y      Z
 O         -0.000 -0.000  0.000    0.000 -0.000 -0.000   -0.000 -0.000  0.000
 C          0.000 -0.000 -0.000   -0.001  0.002  0.000    0.000  0.000  0.000
 C          0.008  0.012 -0.000   -0.016 -0.026  0.001   -0.002 -0.002  0.000
 C         -0.002  0.001  0.000    0.026 -0.044  0.000    0.000  0.000 -0.000
 C          0.000 -0.000 -0.000   -0.060  0.003  0.001    0.008 -0.000 -0.000
 C         -0.002 -0.003  0.000    0.001 -0.001  0.000    0.002  0.002 -0.000
 C          0.049 -0.002 -0.001   -0.004 -0.000  0.000   -0.031  0.003  0.000
 C          0.013  0.030 -0.001    0.002  0.004 -0.000   -0.028 -0.049  0.001
 C          0.028 -0.051  0.000    0.003 -0.008  0.000    0.021 -0.036  0.000
 C         -0.017  0.000  0.000   -0.004  0.001  0.000   -0.041  0.004  0.001
 C         -0.000  0.001 -0.000    0.000 -0.001  0.000   -0.001 -0.002  0.000
 H         -0.002 -0.001  0.000    0.003  0.001 -0.000    0.001 -0.002 -0.000
 H         -0.084 -0.141  0.003    0.174  0.292 -0.006    0.016  0.028 -0.001
 H          0.012 -0.023  0.000   -0.282  0.532 -0.001    0.000  0.000 -0.000
 H         -0.002  0.002  0.000    0.706 -0.018 -0.012   -0.094  0.002  0.002
 H         -0.547  0.016  0.009    0.044  0.001 -0.001    0.333 -0.012 -0.006
 H         -0.190 -0.324  0.007   -0.025 -0.041  0.001    0.328  0.548 -0.012
 H         -0.323  0.610 -0.002   -0.047  0.088 -0.000   -0.224  0.410 -0.001
 H          0.220 -0.006 -0.004    0.050 -0.001 -0.001    0.494 -0.012 -0.008
 TransDip   0.100 -0.021 -0.001   -0.075 -0.140  0.003   -0.080 -0.246  0.004

 Mode:                49                     50                     51
 Frequency:      3222.72                3228.98                3880.26
 Force Cnst:      6.7214                 6.7332                 9.4576
 Red. Mass:       1.0984                 1.0961                 1.0661
 IR Active:          YES                    YES                    YES
 IR Intens:        8.096                  6.786                310.029
 Raman Active:       YES                    YES                    YES
               X      Y      Z        X      Y      Z        X      Y      Z
 O         -0.000  0.000 -0.000   -0.000 -0.000  0.000   -0.025 -0.057  0.001
 C          0.001 -0.001  0.000   -0.000  0.001 -0.000   -0.001 -0.002  0.000
 C          0.010  0.013 -0.000   -0.001 -0.002  0.000    0.002  0.001 -0.000
 C         -0.027  0.058 -0.000    0.000  0.000 -0.000    0.000 -0.000  0.000
 C         -0.062 -0.002  0.001    0.002 -0.000 -0.000   -0.000 -0.000  0.000
 C          0.000 -0.003  0.000    0.001  0.000 -0.000   -0.001 -0.000  0.000
 C         -0.004  0.001  0.000    0.006 -0.002 -0.000    0.001  0.000 -0.000
 C         -0.003 -0.005  0.000    0.014  0.021 -0.000   -0.001 -0.001  0.000
 C          0.000  0.001 -0.000   -0.019  0.039 -0.000    0.001  0.001 -0.000
 C         -0.003 -0.001  0.000   -0.074 -0.001  0.001   -0.001 -0.000  0.000
 C          0.001  0.000 -0.000   -0.000 -0.003  0.000    0.001  0.001 -0.000
 H         -0.001 -0.002  0.000    0.001 -0.001 -0.000    0.399  0.914 -0.015
 H         -0.090 -0.146  0.003    0.012  0.022 -0.000   -0.006 -0.006  0.000
 H          0.324 -0.622  0.002    0.001 -0.001 -0.000   -0.000  0.000 -0.000
 H          0.681 -0.014 -0.011   -0.018  0.001  0.000    0.001 -0.000  0.000
 H          0.044  0.000 -0.001   -0.068  0.003  0.001   -0.001 -0.000  0.000
 H          0.032  0.054 -0.001   -0.141 -0.231  0.005    0.001  0.002 -0.000
 H          0.004 -0.007  0.000    0.216 -0.407  0.001    0.001 -0.000 -0.000
 H          0.038 -0.001 -0.001    0.837 -0.015 -0.014    0.001  0.001 -0.000
 TransDip  -0.066  0.063  0.000   -0.064 -0.054  0.002    0.307  0.473 -0.011

 STANDARD THERMODYNAMIC QUANTITIES AT   298.15 K  AND     1.00 ATM

   This Molecule has  2 Imaginary Frequencies
   Zero point vibrational energy:       91.734 kcal/mol

   Atom    1 Element O  Has Mass   15.99491
   Atom    2 Element C  Has Mass   12.00000
   Atom    3 Element C  Has Mass   12.00000
   Atom    4 Element C  Has Mass   12.00000
   Atom    5 Element C  Has Mass   12.00000
   Atom    6 Element C  Has Mass   12.00000
   Atom    7 Element C  Has Mass   12.00000
   Atom    8 Element C  Has Mass   12.00000
   Atom    9 Element C  Has Mass   12.00000
   Atom   10 Element C  Has Mass   12.00000
   Atom   11 Element C  Has Mass   12.00000
   Atom   12 Element H  Has Mass    1.00783
   Atom   13 Element H  Has Mass    1.00783
   Atom   14 Element H  Has Mass    1.00783
   Atom   15 Element H  Has Mass    1.00783
   Atom   16 Element H  Has Mass    1.00783
   Atom   17 Element H  Has Mass    1.00783
   Atom   18 Element H  Has Mass    1.00783
   Atom   19 Element H  Has Mass    1.00783
   Molecular Mass:   144.057550 amu
   Principal axes and moments of inertia in amu*Bohr^2:
                             1           2           3
    Eigenvalues --      926.82358  1591.42886  2518.25239
          X               0.29537     0.95524     0.01649
          Y               0.95526    -0.29557     0.01126
          Z              -0.01563    -0.01243     0.99980
   Rotational Symmetry Number is   1
   The Molecule is an Asymmetric Top
   Translational Enthalpy:        0.889 kcal/mol
   Rotational Enthalpy:           0.889 kcal/mol
   Vibrational Enthalpy:         94.970 kcal/mol
   gas constant (RT):             0.592 kcal/mol
   Translational Entropy:        40.806  cal/mol.K
   Rotational Entropy:           29.697  cal/mol.K
   Vibrational Entropy:          17.011  cal/mol.K

   Total Enthalpy:               97.340 kcal/mol
   Total Entropy:                87.514  cal/mol.K
Archival summary:
1\1\xxxxx\FREQ\ProcedureUnspecified\BasisUnspecified\1108\xxxxx\WedJan1914:10:472022WedJan1914:10:472022\0\\#,FREQ,ProcedureUnspecified,BasisUnspecified,\\0,1\C\C,1,1.41693\H,2,1.08888,1,118.902\C,2,1.37606,1,120.416,3,179.998,0\H,4,1.09052,2,120.005,1,-180,0\C,4,1.41367,2,120.284,1,0.0114764,0\H,6,1.0908,4,119.721,2,179.976,0\C,6,1.37549,4,120.296,2,-0.0114653,0\H,8,1.09129,6,120.385,4,179.997,0\C,8,1.41883,6,121.031,4,0.00711327,0\C,10,1.41949,8,121.958,6,179.998,0\H,11,1.09036,10,119.177,8,-0.00678328,0\C,11,1.37377,10,120.141,8,179.997,0\H,13,1.09057,11,120.211,10,-179.996,0\C,13,1.41278,11,120.813,10,-0.0051441,0\H,15,1.09231,13,119.964,11,-179.963,0\C,15,1.378,13,120.123,11,0.0203803,0\O,17,1.36179,15,122.818,13,179.986,0\H,18,0.961983,17,108.962,15,-0.120223,0\\\@

 Total job time:  16542.75s(wall), 291453.54s(cpu) 
 Wed Jan 19 14:10:47 2022

        *************************************************************
        *                                                           *
        *  Thank you very much for using Q-Chem.  Have a nice day.  *
        *                                                           *
        *************************************************************


